LAMMPS (3 Mar 2020)
Reading data file ...
  orthogonal box = (0 -20 -20) to (99.7477 120 120)
  2 by 2 by 3 MPI processor grid
  reading atoms ...
  67474 atoms
  reading velocities ...
  67474 velocities
  scanning bonds ...
  3 = max bonds/atom
  scanning angles ...
  3 = max angles/atom
  reading bonds ...
  14187 bonds
  reading angles ...
  14187 angles
Finding 1-2 1-3 1-4 neighbors ...
  special bond factors lj:   0          0          0.5       
  special bond factors coul: 0          0          0.5       
  3 = max # of 1-2 neighbors
  2 = max # of 1-3 neighbors
  2 = max # of 1-4 neighbors
  3 = max # of special neighbors
  special bonds CPU = 0.0373189 secs
  read_data CPU = 0.507907 secs
48558 atoms in group gCoal
18916 atoms in group gH2O
18916 atoms in group gMobile
Setting atom values ...
  0 settings made for charge
Setting atom values ...
  0 settings made for charge
Setting atom values ...
  0 settings made for charge
Setting atom values ...
  0 settings made for charge
Setting atom values ...
  0 settings made for charge
Setting atom values ...
  0 settings made for charge
Setting atom values ...
  0 settings made for charge
Setting atom values ...
  0 settings made for charge
Setting atom values ...
  0 settings made for charge
Setting atom values ...
  0 settings made for charge
Setting atom values ...
  0 settings made for charge
Setting atom values ...
  0 settings made for charge
Setting atom values ...
  0 settings made for charge
Setting atom values ...
  0 settings made for charge
Setting atom values ...
  0 settings made for charge
Setting atom values ...
  0 settings made for charge
Setting atom values ...
  0 settings made for charge
Setting atom values ...
  0 settings made for charge
Setting atom values ...
  0 settings made for charge
Setting atom values ...
  0 settings made for charge
Setting atom values ...
  0 settings made for charge
Setting atom values ...
  0 settings made for charge
Setting atom values ...
  0 settings made for charge
Setting atom values ...
  0 settings made for charge
Setting atom values ...
  0 settings made for charge
Setting atom values ...
  0 settings made for charge
Setting atom values ...
  0 settings made for charge
Setting atom values ...
  0 settings made for charge
Setting atom values ...
  0 settings made for charge
Setting atom values ...
  0 settings made for charge
Setting atom values ...
  0 settings made for charge
Setting atom values ...
  0 settings made for charge
Setting atom values ...
  0 settings made for charge
Setting atom values ...
  0 settings made for charge
Setting atom values ...
  0 settings made for charge
Setting atom values ...
  0 settings made for charge
Setting atom values ...
  0 settings made for charge
Setting atom values ...
  0 settings made for charge
Setting atom values ...
  0 settings made for charge
Setting atom values ...
  0 settings made for charge
Setting atom values ...
  0 settings made for charge
Setting atom values ...
  0 settings made for charge
Setting atom values ...
  0 settings made for charge
Setting atom values ...
  0 settings made for charge
Setting atom values ...
  0 settings made for charge
Setting atom values ...
  0 settings made for charge
Setting atom values ...
  0 settings made for charge
Setting atom values ...
  0 settings made for charge
Setting atom values ...
  0 settings made for charge
Setting atom values ...
  0 settings made for charge
Setting atom values ...
  0 settings made for charge
Setting atom values ...
  0 settings made for charge
Setting atom values ...
  0 settings made for charge
Setting atom values ...
  0 settings made for charge
Setting atom values ...
  0 settings made for charge
Setting atom values ...
  0 settings made for charge
Setting atom values ...
  0 settings made for charge
Setting atom values ...
  0 settings made for charge
Setting atom values ...
  0 settings made for charge
Setting atom values ...
  0 settings made for charge
Setting atom values ...
  0 settings made for charge
Setting atom values ...
  0 settings made for charge
Setting atom values ...
  0 settings made for charge
Setting atom values ...
  0 settings made for charge
Setting atom values ...
  4729 settings made for charge
Setting atom values ...
  9458 settings made for charge
Setting atom values ...
  4729 settings made for charge
Setting atom values ...
  0 settings made for charge
Setting atom values ...
  0 settings made for charge
Setting atom values ...
  0 settings made for charge
Setting atom values ...
  0 settings made for charge
Setting atom values ...
  0 settings made for charge
Setting atom values ...
  0 settings made for charge
Setting atom values ...
  0 settings made for charge
Setting atom values ...
  0 settings made for charge
Setting atom values ...
  0 settings made for charge
Setting atom values ...
  0 settings made for charge
Setting atom values ...
  0 settings made for charge
Setting atom values ...
  0 settings made for charge
Setting atom values ...
  604 settings made for charge
Setting atom values ...
  3490 settings made for charge
Setting atom values ...
  1172 settings made for charge
Setting atom values ...
  0 settings made for charge
Setting atom values ...
  8 settings made for charge
Setting atom values ...
  15743 settings made for charge
Setting atom values ...
  974 settings made for charge
Setting atom values ...
  230 settings made for charge
Setting atom values ...
  0 settings made for charge
Setting atom values ...
  230 settings made for charge
Setting atom values ...
  4497 settings made for charge
Setting atom values ...
  2179 settings made for charge
Setting atom values ...
  9085 settings made for charge
Setting atom values ...
  862 settings made for charge
Setting atom values ...
  888 settings made for charge
Setting atom values ...
  0 settings made for charge
Setting atom values ...
  115 settings made for charge
Setting atom values ...
  115 settings made for charge
Setting atom values ...
  0 settings made for charge
Setting atom values ...
  0 settings made for charge
Setting atom values ...
  0 settings made for charge
Setting atom values ...
  0 settings made for charge
Setting atom values ...
  0 settings made for charge
Setting atom values ...
  0 settings made for charge
Setting atom values ...
  0 settings made for charge
Setting atom values ...
  0 settings made for charge
Setting atom values ...
  0 settings made for charge
Setting atom values ...
  0 settings made for charge
Setting atom values ...
  406 settings made for charge
Setting atom values ...
  406 settings made for charge
Setting atom values ...
  406 settings made for charge
Setting atom values ...
  0 settings made for charge
Setting atom values ...
  0 settings made for charge
Setting atom values ...
  0 settings made for charge
Setting atom values ...
  0 settings made for charge
Setting atom values ...
  0 settings made for charge
Setting atom values ...
  0 settings made for charge
Setting atom values ...
  0 settings made for charge
Setting atom values ...
  0 settings made for charge
Setting atom values ...
  230 settings made for charge
Setting atom values ...
  0 settings made for charge
Setting atom values ...
  345 settings made for charge
Setting atom values ...
  230 settings made for charge
Setting atom values ...
  0 settings made for charge
Setting atom values ...
  230 settings made for charge
Setting atom values ...
  575 settings made for charge
Setting atom values ...
  0 settings made for charge
Setting atom values ...
  1035 settings made for charge
Setting atom values ...
  0 settings made for charge
Setting atom values ...
  0 settings made for charge
Setting atom values ...
  0 settings made for charge
Setting atom values ...
  0 settings made for charge
Setting atom values ...
  0 settings made for charge
Setting atom values ...
  0 settings made for charge
Setting atom values ...
  0 settings made for charge
Setting atom values ...
  0 settings made for charge
Setting atom values ...
  0 settings made for charge
Setting atom values ...
  0 settings made for charge
Setting atom values ...
  0 settings made for charge
Setting atom values ...
  0 settings made for charge
Setting atom values ...
  0 settings made for charge
Setting atom values ...
  805 settings made for charge
Setting atom values ...
  0 settings made for charge
Setting atom values ...
  0 settings made for charge
Setting atom values ...
  0 settings made for charge
Setting atom values ...
  0 settings made for charge
Setting atom values ...
  0 settings made for charge
Setting atom values ...
  0 settings made for charge
Setting atom values ...
  0 settings made for charge
Setting atom values ...
  0 settings made for charge
Setting atom values ...
  0 settings made for charge
Setting atom values ...
  0 settings made for charge
Setting atom values ...
  0 settings made for charge
Setting atom values ...
  0 settings made for charge
Setting atom values ...
  0 settings made for charge
Setting atom values ...
  0 settings made for charge
Setting atom values ...
  0 settings made for charge
Setting atom values ...
  0 settings made for charge
Setting atom values ...
  0 settings made for charge
Setting atom values ...
  0 settings made for charge
Setting atom values ...
  0 settings made for charge
Setting atom values ...
  115 settings made for charge
Setting atom values ...
  0 settings made for charge
Setting atom values ...
  115 settings made for charge
Setting atom values ...
  0 settings made for charge
Setting atom values ...
  0 settings made for charge
Setting atom values ...
  0 settings made for charge
Setting atom values ...
  0 settings made for charge
Setting atom values ...
  0 settings made for charge
Setting atom values ...
  0 settings made for charge
Setting atom values ...
  230 settings made for charge
Setting atom values ...
  0 settings made for charge
Setting atom values ...
  0 settings made for charge
Setting atom values ...
  0 settings made for charge
Setting atom values ...
  0 settings made for charge
Setting atom values ...
  131 settings made for charge
Setting atom values ...
  0 settings made for charge
Setting atom values ...
  0 settings made for charge
Setting atom values ...
  0 settings made for charge
Setting atom values ...
  0 settings made for charge
Setting atom values ...
  0 settings made for charge
Setting atom values ...
  0 settings made for charge
Setting atom values ...
  0 settings made for charge
Setting atom values ...
  0 settings made for charge
Setting atom values ...
  0 settings made for charge
Setting atom values ...
  0 settings made for charge
Setting atom values ...
  0 settings made for charge
Setting atom values ...
  0 settings made for charge
Setting atom values ...
  0 settings made for charge
Setting atom values ...
  0 settings made for charge
Setting atom values ...
  0 settings made for charge
Setting atom values ...
  0 settings made for charge
Setting atom values ...
  0 settings made for charge
Setting atom values ...
  0 settings made for charge
Setting atom values ...
  0 settings made for charge
Setting atom values ...
  0 settings made for charge
Setting atom values ...
  0 settings made for charge
Setting atom values ...
  0 settings made for charge
Setting atom values ...
  0 settings made for charge
Setting atom values ...
  0 settings made for charge
Setting atom values ...
  0 settings made for charge
Setting atom values ...
  0 settings made for charge
Setting atom values ...
  0 settings made for charge
Setting atom values ...
  0 settings made for charge
Setting atom values ...
  0 settings made for charge
Setting atom values ...
  0 settings made for charge
Setting atom values ...
  0 settings made for charge
Setting atom values ...
  0 settings made for charge
Setting atom values ...
  0 settings made for charge
Setting atom values ...
  0 settings made for charge
Setting atom values ...
  0 settings made for charge
Setting atom values ...
  0 settings made for charge
Setting atom values ...
  0 settings made for charge
Setting atom values ...
  0 settings made for charge
Setting atom values ...
  0 settings made for charge
Setting atom values ...
  0 settings made for charge
Setting atom values ...
  0 settings made for charge
Setting atom values ...
  0 settings made for charge
Setting atom values ...
  0 settings made for charge
Setting atom values ...
  0 settings made for charge
Setting atom values ...
  0 settings made for charge
Setting atom values ...
  8 settings made for charge
Setting atom values ...
  268 settings made for charge
Setting atom values ...
  399 settings made for charge
Setting atom values ...
  0 settings made for charge
Setting atom values ...
  0 settings made for charge
Setting atom values ...
  0 settings made for charge
Setting atom values ...
  0 settings made for charge
Setting atom values ...
  0 settings made for charge
Setting atom values ...
  0 settings made for charge
Setting atom values ...
  0 settings made for charge
Setting atom values ...
  0 settings made for charge
Setting atom values ...
  0 settings made for charge
Setting atom values ...
  0 settings made for charge
Setting atom values ...
  0 settings made for charge
Setting atom values ...
  0 settings made for charge
Setting atom values ...
  0 settings made for charge
Setting atom values ...
  0 settings made for charge
Setting atom values ...
  0 settings made for charge
Setting atom values ...
  0 settings made for charge
Setting atom values ...
  0 settings made for charge
Setting atom values ...
  0 settings made for charge
Setting atom values ...
  0 settings made for charge
Setting atom values ...
  0 settings made for charge
Setting atom values ...
  0 settings made for charge
Setting atom values ...
  0 settings made for charge
Setting atom values ...
  0 settings made for charge
Setting atom values ...
  0 settings made for charge
Setting atom values ...
  0 settings made for charge
Setting atom values ...
  0 settings made for charge
Setting atom values ...
  0 settings made for charge
Setting atom values ...
  0 settings made for charge
Setting atom values ...
  0 settings made for charge
Setting atom values ...
  0 settings made for charge
Setting atom values ...
  0 settings made for charge
Setting atom values ...
  0 settings made for charge
Setting atom values ...
  0 settings made for charge
Setting atom values ...
  0 settings made for charge
Setting atom values ...
  0 settings made for charge
Setting atom values ...
  0 settings made for charge
Setting atom values ...
  0 settings made for charge
Setting atom values ...
  0 settings made for charge
Setting atom values ...
  0 settings made for charge
Setting atom values ...
  0 settings made for charge
Setting atom values ...
  0 settings made for charge
Setting atom values ...
  0 settings made for charge
Setting atom values ...
  0 settings made for charge
Setting atom values ...
  0 settings made for charge
Setting atom values ...
  0 settings made for charge
Setting atom values ...
  0 settings made for charge
Setting atom values ...
  0 settings made for charge
Setting atom values ...
  0 settings made for charge
Setting atom values ...
  0 settings made for charge
Setting atom values ...
  0 settings made for charge
Setting atom values ...
  0 settings made for charge
Setting atom values ...
  0 settings made for charge
Setting atom values ...
  0 settings made for charge
Setting atom values ...
  0 settings made for charge
Setting atom values ...
  0 settings made for charge
Setting atom values ...
  0 settings made for charge
Setting atom values ...
  0 settings made for charge
Setting atom values ...
  0 settings made for charge
Setting atom values ...
  0 settings made for charge
Setting atom values ...
  0 settings made for charge
Setting atom values ...
  0 settings made for charge
Setting atom values ...
  0 settings made for charge
Setting atom values ...
  0 settings made for charge
Setting atom values ...
  0 settings made for charge
Setting atom values ...
  0 settings made for charge
Setting atom values ...
  0 settings made for charge
Setting atom values ...
  0 settings made for charge
Setting atom values ...
  0 settings made for charge
Setting atom values ...
  0 settings made for charge
Setting atom values ...
  0 settings made for charge
Setting atom values ...
  0 settings made for charge
Setting atom values ...
  0 settings made for charge
Setting atom values ...
  0 settings made for charge
Setting atom values ...
  0 settings made for charge
Setting atom values ...
  0 settings made for charge
Setting atom values ...
  0 settings made for charge
Setting atom values ...
  0 settings made for charge
Setting atom values ...
  0 settings made for charge
Setting atom values ...
  0 settings made for charge
Setting atom values ...
  0 settings made for charge
Setting atom values ...
  0 settings made for charge
Setting atom values ...
  0 settings made for charge
Setting atom values ...
  0 settings made for charge
Setting atom values ...
  0 settings made for charge
Setting atom values ...
  0 settings made for charge
Setting atom values ...
  0 settings made for charge
Setting atom values ...
  0 settings made for charge
Setting atom values ...
  0 settings made for charge
Setting atom values ...
  0 settings made for charge
Setting atom values ...
  0 settings made for charge
Setting atom values ...
  0 settings made for charge
Setting atom values ...
  0 settings made for charge
Setting atom values ...
  0 settings made for charge
Setting atom values ...
  0 settings made for charge
Setting atom values ...
  0 settings made for charge
Setting atom values ...
  0 settings made for charge
Setting atom values ...
  0 settings made for charge
Setting atom values ...
  0 settings made for charge
Setting atom values ...
  0 settings made for charge
Setting atom values ...
  0 settings made for charge
Setting atom values ...
  0 settings made for charge
Setting atom values ...
  0 settings made for charge
Setting atom values ...
  0 settings made for charge
Setting atom values ...
  0 settings made for charge
Setting atom values ...
  0 settings made for charge
Setting atom values ...
  0 settings made for charge
Setting atom values ...
  0 settings made for charge
Setting atom values ...
  0 settings made for charge
Setting atom values ...
  0 settings made for charge
Setting atom values ...
  0 settings made for charge
Setting atom values ...
  0 settings made for charge
Setting atom values ...
  0 settings made for charge
Setting atom values ...
  0 settings made for charge
Setting atom values ...
  0 settings made for charge
Setting atom values ...
  0 settings made for charge
Setting atom values ...
  0 settings made for charge
Setting atom values ...
  0 settings made for charge
Setting atom values ...
  0 settings made for charge
Setting atom values ...
  0 settings made for charge
Setting atom values ...
  0 settings made for charge
Setting atom values ...
  0 settings made for charge
Setting atom values ...
  0 settings made for charge
Setting atom values ...
  0 settings made for charge
Setting atom values ...
  0 settings made for charge
Setting atom values ...
  0 settings made for charge
Setting atom values ...
  0 settings made for charge
Setting atom values ...
  0 settings made for charge
Setting atom values ...
  0 settings made for charge
Setting atom values ...
  0 settings made for charge
Setting atom values ...
  0 settings made for charge
Setting atom values ...
  0 settings made for charge
Setting atom values ...
  0 settings made for charge
Setting atom values ...
  0 settings made for charge
Setting atom values ...
  0 settings made for charge
Setting atom values ...
  0 settings made for charge
Setting atom values ...
  0 settings made for charge
Setting atom values ...
  0 settings made for charge
Setting atom values ...
  0 settings made for charge
Setting atom values ...
  0 settings made for charge
Setting atom values ...
  0 settings made for charge
Setting atom values ...
  0 settings made for charge
Setting atom values ...
  0 settings made for charge
Setting atom values ...
  0 settings made for charge
Setting atom values ...
  0 settings made for charge
Setting atom values ...
  0 settings made for charge
Setting atom values ...
  0 settings made for charge
Setting atom values ...
  0 settings made for charge
Setting atom values ...
  0 settings made for charge
Setting atom values ...
  0 settings made for charge
Setting atom values ...
  0 settings made for charge
Setting atom values ...
  0 settings made for charge
Setting atom values ...
  0 settings made for charge
Setting atom values ...
  0 settings made for charge
Setting atom values ...
  0 settings made for charge
Setting atom values ...
  0 settings made for charge
Setting atom values ...
  0 settings made for charge
Setting atom values ...
  0 settings made for charge
Setting atom values ...
  0 settings made for charge
Setting atom values ...
  0 settings made for charge
Setting atom values ...
  0 settings made for charge
Setting atom values ...
  0 settings made for charge
Setting atom values ...
  0 settings made for charge
Setting atom values ...
  0 settings made for charge
Setting atom values ...
  0 settings made for charge
Setting atom values ...
  0 settings made for charge
Setting atom values ...
  0 settings made for charge
Setting atom values ...
  0 settings made for charge
Setting atom values ...
  0 settings made for charge
Setting atom values ...
  0 settings made for charge
Setting atom values ...
  0 settings made for charge
Setting atom values ...
  0 settings made for charge
Setting atom values ...
  0 settings made for charge
Setting atom values ...
  0 settings made for charge
Setting atom values ...
  0 settings made for charge
Setting atom values ...
  0 settings made for charge
Setting atom values ...
  0 settings made for charge
Setting atom values ...
  0 settings made for charge
Setting atom values ...
  0 settings made for charge
Setting atom values ...
  0 settings made for charge
Setting atom values ...
  0 settings made for charge
Setting atom values ...
  0 settings made for charge
Setting atom values ...
  0 settings made for charge
Setting atom values ...
  0 settings made for charge
Setting atom values ...
  0 settings made for charge
Setting atom values ...
  0 settings made for charge
Setting atom values ...
  0 settings made for charge
Setting atom values ...
  0 settings made for charge
Setting atom values ...
  0 settings made for charge
Setting atom values ...
  0 settings made for charge
Setting atom values ...
  0 settings made for charge
Setting atom values ...
  0 settings made for charge
Setting atom values ...
  0 settings made for charge
Setting atom values ...
  0 settings made for charge
Setting atom values ...
  0 settings made for charge
Setting atom values ...
  0 settings made for charge
Setting atom values ...
  0 settings made for charge
Setting atom values ...
  0 settings made for charge
Setting atom values ...
  0 settings made for charge
Setting atom values ...
  0 settings made for charge
Setting atom values ...
  0 settings made for charge
Setting atom values ...
  0 settings made for charge
Setting atom values ...
  0 settings made for charge
Setting atom values ...
  0 settings made for charge
Setting atom values ...
  0 settings made for charge
Setting atom values ...
  0 settings made for charge
Setting atom values ...
  0 settings made for charge
Setting atom values ...
  0 settings made for charge
Setting atom values ...
  0 settings made for charge
Setting atom values ...
  0 settings made for charge
Setting atom values ...
  0 settings made for charge
Setting atom values ...
  0 settings made for charge
Setting atom values ...
  0 settings made for charge
Setting atom values ...
  0 settings made for charge
Setting atom values ...
  0 settings made for charge
Setting atom values ...
  0 settings made for charge
Setting atom values ...
  0 settings made for charge
Setting atom values ...
  0 settings made for charge
Setting atom values ...
  0 settings made for charge
Setting atom values ...
  0 settings made for charge
Setting atom values ...
  0 settings made for charge
Setting atom values ...
  0 settings made for charge
Setting atom values ...
  0 settings made for charge
Setting atom values ...
  0 settings made for charge
Setting atom values ...
  0 settings made for charge
Setting atom values ...
  0 settings made for charge
Setting atom values ...
  0 settings made for charge
Setting atom values ...
  0 settings made for charge
Setting atom values ...
  0 settings made for charge
Setting atom values ...
  0 settings made for charge
Setting atom values ...
  0 settings made for charge
Setting atom values ...
  0 settings made for charge
Setting atom values ...
  0 settings made for charge
Setting atom values ...
  697 settings made for charge
Setting atom values ...
  0 settings made for charge
Setting atom values ...
  0 settings made for charge
Setting atom values ...
  0 settings made for charge
Setting atom values ...
  0 settings made for charge
Setting atom values ...
  122 settings made for charge
Setting atom values ...
  122 settings made for charge
Setting atom values ...
  244 settings made for charge
Setting atom values ...
  122 settings made for charge
Setting atom values ...
  0 settings made for charge
Setting atom values ...
  0 settings made for charge
Setting atom values ...
  0 settings made for charge
Setting atom values ...
  0 settings made for charge
Setting atom values ...
  0 settings made for charge
Setting atom values ...
  0 settings made for charge
Setting atom values ...
  0 settings made for charge
Setting atom values ...
  0 settings made for charge
Setting atom values ...
  0 settings made for charge
Setting atom values ...
  0 settings made for charge
Setting atom values ...
  0 settings made for charge
Setting atom values ...
  0 settings made for charge
Setting atom values ...
  0 settings made for charge
Setting atom values ...
  0 settings made for charge
Setting atom values ...
  0 settings made for charge
Setting atom values ...
  0 settings made for charge
Setting atom values ...
  0 settings made for charge
Setting atom values ...
  0 settings made for charge
Setting atom values ...
  0 settings made for charge
Setting atom values ...
  0 settings made for charge
Setting atom values ...
  0 settings made for charge
Setting atom values ...
  0 settings made for charge
Setting atom values ...
  0 settings made for charge
Setting atom values ...
  0 settings made for charge
Setting atom values ...
  0 settings made for charge
Setting atom values ...
  0 settings made for charge
Setting atom values ...
  0 settings made for charge
Setting atom values ...
  0 settings made for charge
Setting atom values ...
  0 settings made for charge
Setting atom values ...
  0 settings made for charge
Setting atom values ...
  0 settings made for charge
Setting atom values ...
  0 settings made for charge
Setting atom values ...
  0 settings made for charge
Setting atom values ...
  0 settings made for charge
Setting atom values ...
  0 settings made for charge
Setting atom values ...
  0 settings made for charge
Setting atom values ...
  0 settings made for charge
Setting atom values ...
  0 settings made for charge
Setting atom values ...
  0 settings made for charge
Setting atom values ...
  0 settings made for charge
Setting atom values ...
  0 settings made for charge
Setting atom values ...
  0 settings made for charge
Setting atom values ...
  0 settings made for charge
Setting atom values ...
  0 settings made for charge
Setting atom values ...
  0 settings made for charge
Setting atom values ...
  0 settings made for charge
Setting atom values ...
  0 settings made for charge
Setting atom values ...
  0 settings made for charge
Setting atom values ...
  0 settings made for charge
Setting atom values ...
  0 settings made for charge
Setting atom values ...
  0 settings made for charge
Setting atom values ...
  0 settings made for charge
Setting atom values ...
  0 settings made for charge
Setting atom values ...
  0 settings made for charge
Setting atom values ...
  0 settings made for charge
Setting atom values ...
  0 settings made for charge
Setting atom values ...
  0 settings made for charge
Setting atom values ...
  0 settings made for charge
Setting atom values ...
  0 settings made for charge
Setting atom values ...
  0 settings made for charge
Setting atom values ...
  0 settings made for charge
Setting atom values ...
  0 settings made for charge
Setting atom values ...
  0 settings made for charge
Setting atom values ...
  0 settings made for charge
Setting atom values ...
  0 settings made for charge
Setting atom values ...
  0 settings made for charge
Setting atom values ...
  0 settings made for charge
Setting atom values ...
  0 settings made for charge
Setting atom values ...
  0 settings made for charge
Setting atom values ...
  0 settings made for charge
Setting atom values ...
  0 settings made for charge
Setting atom values ...
  0 settings made for charge
Setting atom values ...
  0 settings made for charge
Setting atom values ...
  0 settings made for charge
Setting atom values ...
  0 settings made for charge
Setting atom values ...
  0 settings made for charge
Setting atom values ...
  0 settings made for charge
Setting atom values ...
  0 settings made for charge
Setting atom values ...
  0 settings made for charge
Setting atom values ...
  16 settings made for charge
Setting atom values ...
  16 settings made for charge
Setting atom values ...
  16 settings made for charge
Setting atom values ...
  16 settings made for charge
Setting atom values ...
  16 settings made for charge
Setting atom values ...
  8 settings made for charge
Setting atom values ...
  8 settings made for charge
Setting atom values ...
  8 settings made for charge
Setting atom values ...
  16 settings made for charge
Setting atom values ...
  8 settings made for charge
Setting atom values ...
  8 settings made for charge
Setting atom values ...
  0 settings made for charge
Setting atom values ...
  8 settings made for charge
Setting atom values ...
  8 settings made for charge
Setting atom values ...
  8 settings made for charge
Setting atom values ...
  0 settings made for charge
Setting atom values ...
  16 settings made for charge
Setting atom values ...
  0 settings made for charge
Setting atom values ...
  0 settings made for charge
Setting atom values ...
  0 settings made for charge
Setting atom values ...
  0 settings made for charge
Setting atom values ...
  0 settings made for charge
Setting atom values ...
  0 settings made for charge
Setting atom values ...
  0 settings made for charge
Setting atom values ...
  0 settings made for charge
Setting atom values ...
  0 settings made for charge
Setting atom values ...
  0 settings made for charge
Setting atom values ...
  0 settings made for charge
Setting atom values ...
  0 settings made for charge
Setting atom values ...
  0 settings made for charge
Setting atom values ...
  0 settings made for charge
Setting atom values ...
  0 settings made for charge
Setting atom values ...
  0 settings made for charge
Setting atom values ...
  0 settings made for charge
Setting atom values ...
  0 settings made for charge
Setting atom values ...
  0 settings made for charge
Setting atom values ...
  0 settings made for charge
Setting atom values ...
  0 settings made for charge
Setting atom values ...
  0 settings made for charge
Setting atom values ...
  0 settings made for charge
Setting atom values ...
  0 settings made for charge
Setting atom values ...
  0 settings made for charge
Setting atom values ...
  0 settings made for charge
Setting atom values ...
  0 settings made for charge
Setting atom values ...
  0 settings made for charge
Setting atom values ...
  0 settings made for charge
Setting atom values ...
  0 settings made for charge
Setting atom values ...
  0 settings made for charge
Setting atom values ...
  0 settings made for charge
Setting atom values ...
  0 settings made for charge
Setting atom values ...
  0 settings made for charge
Setting atom values ...
  0 settings made for charge
Setting atom values ...
  0 settings made for charge
Setting atom values ...
  0 settings made for charge
Setting atom values ...
  0 settings made for charge
Setting atom values ...
  0 settings made for charge
Setting atom values ...
  0 settings made for charge
Setting atom values ...
  0 settings made for charge
Setting atom values ...
  0 settings made for charge
Setting atom values ...
  0 settings made for charge
Setting atom values ...
  0 settings made for charge
Setting atom values ...
  0 settings made for charge
Setting atom values ...
  0 settings made for charge
Setting atom values ...
  0 settings made for charge
Setting atom values ...
  0 settings made for charge
Setting atom values ...
  0 settings made for charge
Setting atom values ...
  0 settings made for charge
Setting atom values ...
  0 settings made for charge
Setting atom values ...
  0 settings made for charge
Setting atom values ...
  0 settings made for charge
Setting atom values ...
  0 settings made for charge
Setting atom values ...
  0 settings made for charge
Setting atom values ...
  0 settings made for charge
Setting atom values ...
  0 settings made for charge
Setting atom values ...
  0 settings made for charge
Setting atom values ...
  0 settings made for charge
Setting atom values ...
  130 settings made for charge
Setting atom values ...
  0 settings made for charge
Setting atom values ...
  0 settings made for charge
Setting atom values ...
  0 settings made for charge
Setting atom values ...
  0 settings made for charge
Setting atom values ...
  0 settings made for charge
Setting atom values ...
  0 settings made for charge
Setting atom values ...
  0 settings made for charge
Setting atom values ...
  0 settings made for charge
Setting atom values ...
  0 settings made for charge
Setting atom values ...
  0 settings made for charge
Setting atom values ...
  122 settings made for charge
Setting atom values ...
  122 settings made for charge
Setting atom values ...
  0 settings made for charge
Setting atom values ...
  0 settings made for charge
Setting atom values ...
  0 settings made for charge
Setting atom values ...
  0 settings made for charge
Setting atom values ...
  115 settings made for charge
Setting atom values ...
  0 settings made for charge
Setting atom values ...
  0 settings made for charge
Setting atom values ...
  0 settings made for charge
Setting atom values ...
  0 settings made for charge
Setting atom values ...
  0 settings made for charge
Setting atom values ...
  0 settings made for charge
Setting atom values ...
  0 settings made for charge
Setting atom values ...
  0 settings made for charge
Setting atom values ...
  0 settings made for charge
Setting atom values ...
  0 settings made for charge
Setting atom values ...
  0 settings made for charge
Setting atom values ...
  0 settings made for charge
Setting atom values ...
  0 settings made for charge
Setting atom values ...
  0 settings made for charge
Setting atom values ...
  0 settings made for charge
Setting atom values ...
  0 settings made for charge
Setting atom values ...
  0 settings made for charge
Setting atom values ...
  0 settings made for charge
Setting atom values ...
  0 settings made for charge
Setting atom values ...
  0 settings made for charge
Setting atom values ...
  0 settings made for charge
Setting atom values ...
  0 settings made for charge
Setting atom values ...
  0 settings made for charge
Setting atom values ...
  0 settings made for charge
Setting atom values ...
  0 settings made for charge
Setting atom values ...
  0 settings made for charge
Setting atom values ...
  0 settings made for charge
Setting atom values ...
  0 settings made for charge
Setting atom values ...
  0 settings made for charge
Setting atom values ...
  0 settings made for charge
Setting atom values ...
  0 settings made for charge
Setting atom values ...
  0 settings made for charge
Setting atom values ...
  0 settings made for charge
Setting atom values ...
  0 settings made for charge
Setting atom values ...
  0 settings made for charge
Setting atom values ...
  0 settings made for charge
Setting atom values ...
  0 settings made for charge
Setting atom values ...
  0 settings made for charge
Setting atom values ...
  0 settings made for charge
Setting atom values ...
  0 settings made for charge
Setting atom values ...
  0 settings made for charge
Setting atom values ...
  0 settings made for charge
Setting atom values ...
  0 settings made for charge
Setting atom values ...
  0 settings made for charge
Setting atom values ...
  0 settings made for charge
Setting atom values ...
  0 settings made for charge
Setting atom values ...
  0 settings made for charge
Setting atom values ...
  0 settings made for charge
Setting atom values ...
  0 settings made for charge
Setting atom values ...
  0 settings made for charge
Setting atom values ...
  0 settings made for charge
Setting atom values ...
  0 settings made for charge
Setting atom values ...
  0 settings made for charge
Setting atom values ...
  0 settings made for charge
Setting atom values ...
  0 settings made for charge
Setting atom values ...
  0 settings made for charge
Setting atom values ...
  0 settings made for charge
Setting atom values ...
  0 settings made for charge
Setting atom values ...
  0 settings made for charge
Setting atom values ...
  0 settings made for charge
Setting atom values ...
  0 settings made for charge
Setting atom values ...
  0 settings made for charge
Setting atom values ...
  0 settings made for charge
Setting atom values ...
  0 settings made for charge
Setting atom values ...
  0 settings made for charge
Setting atom values ...
  0 settings made for charge
Setting atom values ...
  0 settings made for charge
Setting atom values ...
  0 settings made for charge
Setting atom values ...
  0 settings made for charge
Setting atom values ...
  0 settings made for charge
Setting atom values ...
  0 settings made for charge
Setting atom values ...
  0 settings made for charge
Setting atom values ...
  0 settings made for charge
Setting atom values ...
  0 settings made for charge
Setting atom values ...
  0 settings made for charge
Setting atom values ...
  0 settings made for charge
Setting atom values ...
  0 settings made for charge
Setting atom values ...
  0 settings made for charge
Setting atom values ...
  0 settings made for charge
Setting atom values ...
  0 settings made for charge
Setting atom values ...
  0 settings made for charge
Setting atom values ...
  0 settings made for charge
Setting atom values ...
  0 settings made for charge
Setting atom values ...
  0 settings made for charge
Setting atom values ...
  0 settings made for charge
Setting atom values ...
  0 settings made for charge
Setting atom values ...
  0 settings made for charge
Setting atom values ...
  0 settings made for charge
Setting atom values ...
  0 settings made for charge
Setting atom values ...
  0 settings made for charge
Setting atom values ...
  0 settings made for charge
Setting atom values ...
  0 settings made for charge
Setting atom values ...
  0 settings made for charge
Setting atom values ...
  115 settings made for charge
Setting atom values ...
  0 settings made for charge
Setting atom values ...
  0 settings made for charge
Setting atom values ...
  0 settings made for charge
Setting atom values ...
  0 settings made for charge
Setting atom values ...
  0 settings made for charge
Setting atom values ...
  115 settings made for charge
Setting atom values ...
  0 settings made for charge
Setting atom values ...
  0 settings made for charge
Setting atom values ...
  115 settings made for charge
Setting atom values ...
  0 settings made for charge
Setting atom values ...
  0 settings made for charge
Setting atom values ...
  0 settings made for charge
Setting atom values ...
  115 settings made for charge
Setting atom values ...
  0 settings made for charge
Setting atom values ...
  0 settings made for charge
Setting atom values ...
  0 settings made for charge
Setting atom values ...
  0 settings made for charge
Setting atom values ...
  0 settings made for charge
Setting atom values ...
  0 settings made for charge
Setting atom values ...
  0 settings made for charge
Setting atom values ...
  0 settings made for charge
Setting atom values ...
  0 settings made for charge
Setting atom values ...
  0 settings made for charge
Setting atom values ...
  0 settings made for charge
Setting atom values ...
  0 settings made for charge
Setting atom values ...
  0 settings made for charge
Setting atom values ...
  0 settings made for charge
Setting atom values ...
  0 settings made for charge
Setting atom values ...
  0 settings made for charge
Setting atom values ...
  0 settings made for charge
Setting atom values ...
  0 settings made for charge
Setting atom values ...
  0 settings made for charge
Setting atom values ...
  0 settings made for charge
Setting atom values ...
  0 settings made for charge
Setting atom values ...
  0 settings made for charge
Setting atom values ...
  0 settings made for charge
Setting atom values ...
  0 settings made for charge
Setting atom values ...
  0 settings made for charge
Setting atom values ...
  0 settings made for charge
Setting atom values ...
  0 settings made for charge
Setting atom values ...
  0 settings made for charge
Setting atom values ...
  0 settings made for charge
Setting atom values ...
  0 settings made for charge
Setting atom values ...
  0 settings made for charge
Setting atom values ...
  0 settings made for charge
Setting atom values ...
  0 settings made for charge
Setting atom values ...
  0 settings made for charge
Setting atom values ...
  0 settings made for charge
Setting atom values ...
  0 settings made for charge
Setting atom values ...
  0 settings made for charge
Setting atom values ...
  0 settings made for charge
Setting atom values ...
  0 settings made for charge
Setting atom values ...
  0 settings made for charge
Setting atom values ...
  0 settings made for charge
Setting atom values ...
  0 settings made for charge
Setting atom values ...
  0 settings made for charge
Setting atom values ...
  0 settings made for charge
Setting atom values ...
  0 settings made for charge
Setting atom values ...
  0 settings made for charge
Setting atom values ...
  0 settings made for charge
Setting atom values ...
  0 settings made for charge
Setting atom values ...
  0 settings made for charge
Setting atom values ...
  0 settings made for charge
Setting atom values ...
  0 settings made for charge
Setting atom values ...
  0 settings made for charge
Setting atom values ...
  0 settings made for charge
Setting atom values ...
  0 settings made for charge
Setting atom values ...
  0 settings made for charge
Setting atom values ...
  0 settings made for charge
Setting atom values ...
  0 settings made for charge
Setting atom values ...
  0 settings made for charge
Setting atom values ...
  0 settings made for charge
Setting atom values ...
  0 settings made for charge
Setting atom values ...
  0 settings made for charge
Setting atom values ...
  0 settings made for charge
Setting atom values ...
  0 settings made for charge
Setting atom values ...
  0 settings made for charge
Setting atom values ...
  0 settings made for charge
Setting atom values ...
  0 settings made for charge
Setting atom values ...
  0 settings made for charge
Setting atom values ...
  0 settings made for charge
Setting atom values ...
  0 settings made for charge
Setting atom values ...
  0 settings made for charge
Setting atom values ...
  0 settings made for charge
Setting atom values ...
  0 settings made for charge
Setting atom values ...
  0 settings made for charge
Setting atom values ...
  0 settings made for charge
Setting atom values ...
  0 settings made for charge
Setting atom values ...
  0 settings made for charge
Setting atom values ...
  0 settings made for charge
Setting atom values ...
  0 settings made for charge
Setting atom values ...
  0 settings made for charge
Setting atom values ...
  0 settings made for charge
Setting atom values ...
  0 settings made for charge
Setting atom values ...
  0 settings made for charge
Setting atom values ...
  0 settings made for charge
Setting atom values ...
  0 settings made for charge
Setting atom values ...
  0 settings made for charge
Setting atom values ...
  0 settings made for charge
Setting atom values ...
  0 settings made for charge
Setting atom values ...
  0 settings made for charge
Setting atom values ...
  0 settings made for charge
Setting atom values ...
  0 settings made for charge
Setting atom values ...
  0 settings made for charge
Setting atom values ...
  0 settings made for charge
Setting atom values ...
  0 settings made for charge
Setting atom values ...
  0 settings made for charge
Setting atom values ...
  0 settings made for charge
Setting atom values ...
  0 settings made for charge
Setting atom values ...
  0 settings made for charge
Setting atom values ...
  0 settings made for charge
Setting atom values ...
  0 settings made for charge
Setting atom values ...
  0 settings made for charge
Setting atom values ...
  0 settings made for charge
Setting atom values ...
  0 settings made for charge
Setting atom values ...
  0 settings made for charge
Setting atom values ...
  0 settings made for charge
Setting atom values ...
  0 settings made for charge
Setting atom values ...
  0 settings made for charge
Setting atom values ...
  0 settings made for charge
Setting atom values ...
  0 settings made for charge
Setting atom values ...
  0 settings made for charge
Setting atom values ...
  0 settings made for charge
Setting atom values ...
  0 settings made for charge
Setting atom values ...
  0 settings made for charge
Setting atom values ...
  0 settings made for charge
Setting atom values ...
  0 settings made for charge
Setting atom values ...
  0 settings made for charge
Setting atom values ...
  0 settings made for charge
Setting atom values ...
  0 settings made for charge
Setting atom values ...
  0 settings made for charge
Setting atom values ...
  0 settings made for charge
Setting atom values ...
  0 settings made for charge
Setting atom values ...
  0 settings made for charge
Setting atom values ...
  0 settings made for charge
Setting atom values ...
  0 settings made for charge
Setting atom values ...
  0 settings made for charge
Setting atom values ...
  0 settings made for charge
Setting atom values ...
  0 settings made for charge
Setting atom values ...
  0 settings made for charge
Setting atom values ...
  0 settings made for charge
Setting atom values ...
  0 settings made for charge
Setting atom values ...
  0 settings made for charge
Setting atom values ...
  0 settings made for charge
Setting atom values ...
  0 settings made for charge
Setting atom values ...
  0 settings made for charge
Setting atom values ...
  0 settings made for charge
Setting atom values ...
  0 settings made for charge
Setting atom values ...
  0 settings made for charge
Setting atom values ...
  0 settings made for charge
Setting atom values ...
  0 settings made for charge
Setting atom values ...
  0 settings made for charge
Setting atom values ...
  0 settings made for charge
Setting atom values ...
  0 settings made for charge
Setting atom values ...
  0 settings made for charge
Setting atom values ...
  0 settings made for charge
Setting atom values ...
  0 settings made for charge
Setting atom values ...
  0 settings made for charge
Setting atom values ...
  0 settings made for charge
Setting atom values ...
  0 settings made for charge
Setting atom values ...
  0 settings made for charge
Setting atom values ...
  0 settings made for charge
Setting atom values ...
  0 settings made for charge
Setting atom values ...
  0 settings made for charge
Setting atom values ...
  0 settings made for charge
Setting atom values ...
  0 settings made for charge
Setting atom values ...
  0 settings made for charge
Setting atom values ...
  0 settings made for charge
Setting atom values ...
  0 settings made for charge
Setting atom values ...
  0 settings made for charge
Setting atom values ...
  0 settings made for charge
Setting atom values ...
  0 settings made for charge
Setting atom values ...
  0 settings made for charge
Setting atom values ...
  0 settings made for charge
Setting atom values ...
  0 settings made for charge
Setting atom values ...
  122 settings made for charge
Setting atom values ...
  16 settings made for charge
  create bodies CPU = 0.0219043 secs
4729 rigid bodies with 18916 atoms
  0.941931 = max distance from body owner to body atom
WARNING: Temperature for thermo pressure is not for group all (../thermo.cpp:485)
PPPM initialization ...
  using 12-bit tables for long-range coulomb (../kspace.cpp:332)
  G vector (1/distance) = 0.228637
  grid = 36 48 48
  stencil order = 5
  estimated absolute RMS force accuracy = 0.0386228
  estimated relative force accuracy = 0.000116312
  using double precision KISS FFT
  3d grid and FFT values/proc = 17825 6912
WARNING: Neighbor exclusions used with KSpace solver may give inconsistent Coulombic energies (../neighbor.cpp:486)
Neighbor list info ...
  update every 1 steps, delay 0 steps, check yes
  max neighbors/atom: 2000, page size: 100000
  master list distance cutoff = 16
  ghost atom cutoff = 16
  binsize = 8, bins = 13 18 18
  1 neighbor lists, perpetual/occasional/extra = 1 0 0
  (1) pair lj/cut/coul/long, perpetual
      attributes: half, newton on
      pair build: half/bin/newton
      stencil: half/bin/3d/newton
      bin: standard
Setting up Verlet run ...
  Unit style    : real
  Current step  : 0
  Time step     : 0.1
Per MPI rank memory allocation (min/avg/max) = 22.51 | 36.86 | 64.34 Mbytes
Step Temp PotEng KinEng TotEng E_vdwl E_coul E_long E_pair Time 
       0    311.20696   -93689.619     8772.775   -84916.844    6808.6659    264678.86   -372488.72   -101001.19            0 
    1000    341.86952   -94548.533    9637.1379   -84911.395    11588.868    259069.81   -372518.78    -101860.1          100 
    2000          310   -95362.797    8738.7514   -86624.046    11394.381    258498.83   -372567.58   -102674.36          200 
    3000          310   -95735.865    8738.7514   -86997.114    11543.885    258052.84   -372644.16   -103047.43          300 
    4000          310   -95509.839    8738.7514   -86771.087    11163.993    258675.16   -372660.56   -102821.41          400 
    5000          310    -91939.93    8738.7514   -83201.178    13724.877    259654.83   -372631.21   -99251.497          500 
    6000          310   -88122.161    8738.7514   -79383.409    13900.357    263211.34   -372545.43   -95433.728          600 
    7000          310   -86199.041    8738.7514    -77460.29    11849.812    267139.92   -372500.34   -93510.608          700 
    8000          310    -84711.58    8738.7514   -75972.829    11074.885    269369.24   -372467.27   -92023.148          800 
    9000          310   -83146.469    8738.7514   -74407.717    10635.409    271382.03   -372475.48   -90458.036          900 
   10000          310   -79697.722    8738.7514    -70958.97    12215.217    273193.34   -372417.85   -87009.289         1000 
Loop time of 1249.08 on 12 procs for 10000 steps with 67474 atoms

Performance: 0.069 ns/day, 346.965 hours/ns, 8.006 timesteps/s
98.1% CPU use with 12 MPI tasks x no OpenMP threads

MPI task timing breakdown:
Section |  min time  |  avg time  |  max time  |%varavg| %total
---------------------------------------------------------------
Pair    | 6.834      | 285.69     | 978.19     |2258.7 | 22.87
Bond    | 0.058943   | 2.1811     | 7.2822     | 202.2 |  0.17
Kspace  | 175.69     | 844.7      | 1113       |1257.3 | 67.63
Neigh   | 33.861     | 33.887     | 33.917     |   0.3 |  2.71
Comm    | 16.926     | 45.194     | 62.282     | 285.2 |  3.62
Output  | 0.58298    | 0.58682    | 0.588      |   0.2 |  0.05
Modify  | 29.924     | 31.141     | 32.699     |  15.5 |  2.49
Other   |            | 5.689      |            |       |  0.46

Nlocal:    5622.83 ave 10455 max 2720 min
Histogram: 5 3 0 0 0 0 0 0 1 3
Nghost:    16894.4 ave 25370 max 12356 min
Histogram: 8 0 0 0 0 0 0 0 0 4
Neighs:    1.83757e+06 ave 6.36665e+06 max 62374 min
Histogram: 8 0 0 0 0 0 1 1 1 1

Total # of neighbors = 22050873
Ave neighs/atom = 326.805
Ave special neighs/atom = 0.841035
Neighbor list builds = 71
Dangerous builds = 0
Total wall time: 0:20:50

real	20m52.142s
user	245m28.304s
sys	2m22.478s
