LAMMPS (3 Mar 2020)
Reading data file ...
  orthogonal box = (0 -20 -20) to (99.7477 120 120)
  3 by 4 by 6 MPI processor grid
  reading atoms ...
  67474 atoms
  reading velocities ...
  67474 velocities
  scanning bonds ...
  3 = max bonds/atom
  scanning angles ...
  3 = max angles/atom
  reading bonds ...
  14187 bonds
  reading angles ...
  14187 angles
Finding 1-2 1-3 1-4 neighbors ...
  special bond factors lj:   0          0          0.5       
  special bond factors coul: 0          0          0.5       
  3 = max # of 1-2 neighbors
  2 = max # of 1-3 neighbors
  2 = max # of 1-4 neighbors
  3 = max # of special neighbors
  special bonds CPU = 1.26576 secs
  read_data CPU = 1.93678 secs
48558 atoms in group gCoal
18916 atoms in group gH2O
18916 atoms in group gMobile
Setting atom values ...
  0 settings made for charge
Setting atom values ...
  0 settings made for charge
Setting atom values ...
  0 settings made for charge
Setting atom values ...
  0 settings made for charge
Setting atom values ...
  0 settings made for charge
Setting atom values ...
  0 settings made for charge
Setting atom values ...
  0 settings made for charge
Setting atom values ...
  0 settings made for charge
Setting atom values ...
  0 settings made for charge
Setting atom values ...
  0 settings made for charge
Setting atom values ...
  0 settings made for charge
Setting atom values ...
  0 settings made for charge
Setting atom values ...
  0 settings made for charge
Setting atom values ...
  0 settings made for charge
Setting atom values ...
  0 settings made for charge
Setting atom values ...
  0 settings made for charge
Setting atom values ...
  0 settings made for charge
Setting atom values ...
  0 settings made for charge
Setting atom values ...
  0 settings made for charge
Setting atom values ...
  0 settings made for charge
Setting atom values ...
  0 settings made for charge
Setting atom values ...
  0 settings made for charge
Setting atom values ...
  0 settings made for charge
Setting atom values ...
  0 settings made for charge
Setting atom values ...
  0 settings made for charge
Setting atom values ...
  0 settings made for charge
Setting atom values ...
  0 settings made for charge
Setting atom values ...
  0 settings made for charge
Setting atom values ...
  0 settings made for charge
Setting atom values ...
  0 settings made for charge
Setting atom values ...
  0 settings made for charge
Setting atom values ...
  0 settings made for charge
Setting atom values ...
  0 settings made for charge
Setting atom values ...
  0 settings made for charge
Setting atom values ...
  0 settings made for charge
Setting atom values ...
  0 settings made for charge
Setting atom values ...
  0 settings made for charge
Setting atom values ...
  0 settings made for charge
Setting atom values ...
  0 settings made for charge
Setting atom values ...
  0 settings made for charge
Setting atom values ...
  0 settings made for charge
Setting atom values ...
  0 settings made for charge
Setting atom values ...
  0 settings made for charge
Setting atom values ...
  0 settings made for charge
Setting atom values ...
  0 settings made for charge
Setting atom values ...
  0 settings made for charge
Setting atom values ...
  0 settings made for charge
Setting atom values ...
  0 settings made for charge
Setting atom values ...
  0 settings made for charge
Setting atom values ...
  0 settings made for charge
Setting atom values ...
  0 settings made for charge
Setting atom values ...
  0 settings made for charge
Setting atom values ...
  0 settings made for charge
Setting atom values ...
  0 settings made for charge
Setting atom values ...
  0 settings made for charge
Setting atom values ...
  0 settings made for charge
Setting atom values ...
  0 settings made for charge
Setting atom values ...
  0 settings made for charge
Setting atom values ...
  0 settings made for charge
Setting atom values ...
  0 settings made for charge
Setting atom values ...
  0 settings made for charge
Setting atom values ...
  0 settings made for charge
Setting atom values ...
  0 settings made for charge
Setting atom values ...
  0 settings made for charge
Setting atom values ...
  4729 settings made for charge
Setting atom values ...
  9458 settings made for charge
Setting atom values ...
  4729 settings made for charge
Setting atom values ...
  0 settings made for charge
Setting atom values ...
  0 settings made for charge
Setting atom values ...
  0 settings made for charge
Setting atom values ...
  0 settings made for charge
Setting atom values ...
  0 settings made for charge
Setting atom values ...
  0 settings made for charge
Setting atom values ...
  0 settings made for charge
Setting atom values ...
  0 settings made for charge
Setting atom values ...
  0 settings made for charge
Setting atom values ...
  0 settings made for charge
Setting atom values ...
  0 settings made for charge
Setting atom values ...
  0 settings made for charge
Setting atom values ...
  604 settings made for charge
Setting atom values ...
  3490 settings made for charge
Setting atom values ...
  1172 settings made for charge
Setting atom values ...
  0 settings made for charge
Setting atom values ...
  8 settings made for charge
Setting atom values ...
  15743 settings made for charge
Setting atom values ...
  974 settings made for charge
Setting atom values ...
  230 settings made for charge
Setting atom values ...
  0 settings made for charge
Setting atom values ...
  230 settings made for charge
Setting atom values ...
  4497 settings made for charge
Setting atom values ...
  2179 settings made for charge
Setting atom values ...
  9085 settings made for charge
Setting atom values ...
  862 settings made for charge
Setting atom values ...
  888 settings made for charge
Setting atom values ...
  0 settings made for charge
Setting atom values ...
  115 settings made for charge
Setting atom values ...
  115 settings made for charge
Setting atom values ...
  0 settings made for charge
Setting atom values ...
  0 settings made for charge
Setting atom values ...
  0 settings made for charge
Setting atom values ...
  0 settings made for charge
Setting atom values ...
  0 settings made for charge
Setting atom values ...
  0 settings made for charge
Setting atom values ...
  0 settings made for charge
Setting atom values ...
  0 settings made for charge
Setting atom values ...
  0 settings made for charge
Setting atom values ...
  0 settings made for charge
Setting atom values ...
  406 settings made for charge
Setting atom values ...
  406 settings made for charge
Setting atom values ...
  406 settings made for charge
Setting atom values ...
  0 settings made for charge
Setting atom values ...
  0 settings made for charge
Setting atom values ...
  0 settings made for charge
Setting atom values ...
  0 settings made for charge
Setting atom values ...
  0 settings made for charge
Setting atom values ...
  0 settings made for charge
Setting atom values ...
  0 settings made for charge
Setting atom values ...
  0 settings made for charge
Setting atom values ...
  230 settings made for charge
Setting atom values ...
  0 settings made for charge
Setting atom values ...
  345 settings made for charge
Setting atom values ...
  230 settings made for charge
Setting atom values ...
  0 settings made for charge
Setting atom values ...
  230 settings made for charge
Setting atom values ...
  575 settings made for charge
Setting atom values ...
  0 settings made for charge
Setting atom values ...
  1035 settings made for charge
Setting atom values ...
  0 settings made for charge
Setting atom values ...
  0 settings made for charge
Setting atom values ...
  0 settings made for charge
Setting atom values ...
  0 settings made for charge
Setting atom values ...
  0 settings made for charge
Setting atom values ...
  0 settings made for charge
Setting atom values ...
  0 settings made for charge
Setting atom values ...
  0 settings made for charge
Setting atom values ...
  0 settings made for charge
Setting atom values ...
  0 settings made for charge
Setting atom values ...
  0 settings made for charge
Setting atom values ...
  0 settings made for charge
Setting atom values ...
  0 settings made for charge
Setting atom values ...
  805 settings made for charge
Setting atom values ...
  0 settings made for charge
Setting atom values ...
  0 settings made for charge
Setting atom values ...
  0 settings made for charge
Setting atom values ...
  0 settings made for charge
Setting atom values ...
  0 settings made for charge
Setting atom values ...
  0 settings made for charge
Setting atom values ...
  0 settings made for charge
Setting atom values ...
  0 settings made for charge
Setting atom values ...
  0 settings made for charge
Setting atom values ...
  0 settings made for charge
Setting atom values ...
  0 settings made for charge
Setting atom values ...
  0 settings made for charge
Setting atom values ...
  0 settings made for charge
Setting atom values ...
  0 settings made for charge
Setting atom values ...
  0 settings made for charge
Setting atom values ...
  0 settings made for charge
Setting atom values ...
  0 settings made for charge
Setting atom values ...
  0 settings made for charge
Setting atom values ...
  0 settings made for charge
Setting atom values ...
  115 settings made for charge
Setting atom values ...
  0 settings made for charge
Setting atom values ...
  115 settings made for charge
Setting atom values ...
  0 settings made for charge
Setting atom values ...
  0 settings made for charge
Setting atom values ...
  0 settings made for charge
Setting atom values ...
  0 settings made for charge
Setting atom values ...
  0 settings made for charge
Setting atom values ...
  0 settings made for charge
Setting atom values ...
  230 settings made for charge
Setting atom values ...
  0 settings made for charge
Setting atom values ...
  0 settings made for charge
Setting atom values ...
  0 settings made for charge
Setting atom values ...
  0 settings made for charge
Setting atom values ...
  131 settings made for charge
Setting atom values ...
  0 settings made for charge
Setting atom values ...
  0 settings made for charge
Setting atom values ...
  0 settings made for charge
Setting atom values ...
  0 settings made for charge
Setting atom values ...
  0 settings made for charge
Setting atom values ...
  0 settings made for charge
Setting atom values ...
  0 settings made for charge
Setting atom values ...
  0 settings made for charge
Setting atom values ...
  0 settings made for charge
Setting atom values ...
  0 settings made for charge
Setting atom values ...
  0 settings made for charge
Setting atom values ...
  0 settings made for charge
Setting atom values ...
  0 settings made for charge
Setting atom values ...
  0 settings made for charge
Setting atom values ...
  0 settings made for charge
Setting atom values ...
  0 settings made for charge
Setting atom values ...
  0 settings made for charge
Setting atom values ...
  0 settings made for charge
Setting atom values ...
  0 settings made for charge
Setting atom values ...
  0 settings made for charge
Setting atom values ...
  0 settings made for charge
Setting atom values ...
  0 settings made for charge
Setting atom values ...
  0 settings made for charge
Setting atom values ...
  0 settings made for charge
Setting atom values ...
  0 settings made for charge
Setting atom values ...
  0 settings made for charge
Setting atom values ...
  0 settings made for charge
Setting atom values ...
  0 settings made for charge
Setting atom values ...
  0 settings made for charge
Setting atom values ...
  0 settings made for charge
Setting atom values ...
  0 settings made for charge
Setting atom values ...
  0 settings made for charge
Setting atom values ...
  0 settings made for charge
Setting atom values ...
  0 settings made for charge
Setting atom values ...
  0 settings made for charge
Setting atom values ...
  0 settings made for charge
Setting atom values ...
  0 settings made for charge
Setting atom values ...
  0 settings made for charge
Setting atom values ...
  0 settings made for charge
Setting atom values ...
  0 settings made for charge
Setting atom values ...
  0 settings made for charge
Setting atom values ...
  0 settings made for charge
Setting atom values ...
  0 settings made for charge
Setting atom values ...
  0 settings made for charge
Setting atom values ...
  0 settings made for charge
Setting atom values ...
  8 settings made for charge
Setting atom values ...
  268 settings made for charge
Setting atom values ...
  399 settings made for charge
Setting atom values ...
  0 settings made for charge
Setting atom values ...
  0 settings made for charge
Setting atom values ...
  0 settings made for charge
Setting atom values ...
  0 settings made for charge
Setting atom values ...
  0 settings made for charge
Setting atom values ...
  0 settings made for charge
Setting atom values ...
  0 settings made for charge
Setting atom values ...
  0 settings made for charge
Setting atom values ...
  0 settings made for charge
Setting atom values ...
  0 settings made for charge
Setting atom values ...
  0 settings made for charge
Setting atom values ...
  0 settings made for charge
Setting atom values ...
  0 settings made for charge
Setting atom values ...
  0 settings made for charge
Setting atom values ...
  0 settings made for charge
Setting atom values ...
  0 settings made for charge
Setting atom values ...
  0 settings made for charge
Setting atom values ...
  0 settings made for charge
Setting atom values ...
  0 settings made for charge
Setting atom values ...
  0 settings made for charge
Setting atom values ...
  0 settings made for charge
Setting atom values ...
  0 settings made for charge
Setting atom values ...
  0 settings made for charge
Setting atom values ...
  0 settings made for charge
Setting atom values ...
  0 settings made for charge
Setting atom values ...
  0 settings made for charge
Setting atom values ...
  0 settings made for charge
Setting atom values ...
  0 settings made for charge
Setting atom values ...
  0 settings made for charge
Setting atom values ...
  0 settings made for charge
Setting atom values ...
  0 settings made for charge
Setting atom values ...
  0 settings made for charge
Setting atom values ...
  0 settings made for charge
Setting atom values ...
  0 settings made for charge
Setting atom values ...
  0 settings made for charge
Setting atom values ...
  0 settings made for charge
Setting atom values ...
  0 settings made for charge
Setting atom values ...
  0 settings made for charge
Setting atom values ...
  0 settings made for charge
Setting atom values ...
  0 settings made for charge
Setting atom values ...
  0 settings made for charge
Setting atom values ...
  0 settings made for charge
Setting atom values ...
  0 settings made for charge
Setting atom values ...
  0 settings made for charge
Setting atom values ...
  0 settings made for charge
Setting atom values ...
  0 settings made for charge
Setting atom values ...
  0 settings made for charge
Setting atom values ...
  0 settings made for charge
Setting atom values ...
  0 settings made for charge
Setting atom values ...
  0 settings made for charge
Setting atom values ...
  0 settings made for charge
Setting atom values ...
  0 settings made for charge
Setting atom values ...
  0 settings made for charge
Setting atom values ...
  0 settings made for charge
Setting atom values ...
  0 settings made for charge
Setting atom values ...
  0 settings made for charge
Setting atom values ...
  0 settings made for charge
Setting atom values ...
  0 settings made for charge
Setting atom values ...
  0 settings made for charge
Setting atom values ...
  0 settings made for charge
Setting atom values ...
  0 settings made for charge
Setting atom values ...
  0 settings made for charge
Setting atom values ...
  0 settings made for charge
Setting atom values ...
  0 settings made for charge
Setting atom values ...
  0 settings made for charge
Setting atom values ...
  0 settings made for charge
Setting atom values ...
  0 settings made for charge
Setting atom values ...
  0 settings made for charge
Setting atom values ...
  0 settings made for charge
Setting atom values ...
  0 settings made for charge
Setting atom values ...
  0 settings made for charge
Setting atom values ...
  0 settings made for charge
Setting atom values ...
  0 settings made for charge
Setting atom values ...
  0 settings made for charge
Setting atom values ...
  0 settings made for charge
Setting atom values ...
  0 settings made for charge
Setting atom values ...
  0 settings made for charge
Setting atom values ...
  0 settings made for charge
Setting atom values ...
  0 settings made for charge
Setting atom values ...
  0 settings made for charge
Setting atom values ...
  0 settings made for charge
Setting atom values ...
  0 settings made for charge
Setting atom values ...
  0 settings made for charge
Setting atom values ...
  0 settings made for charge
Setting atom values ...
  0 settings made for charge
Setting atom values ...
  0 settings made for charge
Setting atom values ...
  0 settings made for charge
Setting atom values ...
  0 settings made for charge
Setting atom values ...
  0 settings made for charge
Setting atom values ...
  0 settings made for charge
Setting atom values ...
  0 settings made for charge
Setting atom values ...
  0 settings made for charge
Setting atom values ...
  0 settings made for charge
Setting atom values ...
  0 settings made for charge
Setting atom values ...
  0 settings made for charge
Setting atom values ...
  0 settings made for charge
Setting atom values ...
  0 settings made for charge
Setting atom values ...
  0 settings made for charge
Setting atom values ...
  0 settings made for charge
Setting atom values ...
  0 settings made for charge
Setting atom values ...
  0 settings made for charge
Setting atom values ...
  0 settings made for charge
Setting atom values ...
  0 settings made for charge
Setting atom values ...
  0 settings made for charge
Setting atom values ...
  0 settings made for charge
Setting atom values ...
  0 settings made for charge
Setting atom values ...
  0 settings made for charge
Setting atom values ...
  0 settings made for charge
Setting atom values ...
  0 settings made for charge
Setting atom values ...
  0 settings made for charge
Setting atom values ...
  0 settings made for charge
Setting atom values ...
  0 settings made for charge
Setting atom values ...
  0 settings made for charge
Setting atom values ...
  0 settings made for charge
Setting atom values ...
  0 settings made for charge
Setting atom values ...
  0 settings made for charge
Setting atom values ...
  0 settings made for charge
Setting atom values ...
  0 settings made for charge
Setting atom values ...
  0 settings made for charge
Setting atom values ...
  0 settings made for charge
Setting atom values ...
  0 settings made for charge
Setting atom values ...
  0 settings made for charge
Setting atom values ...
  0 settings made for charge
Setting atom values ...
  0 settings made for charge
Setting atom values ...
  0 settings made for charge
Setting atom values ...
  0 settings made for charge
Setting atom values ...
  0 settings made for charge
Setting atom values ...
  0 settings made for charge
Setting atom values ...
  0 settings made for charge
Setting atom values ...
  0 settings made for charge
Setting atom values ...
  0 settings made for charge
Setting atom values ...
  0 settings made for charge
Setting atom values ...
  0 settings made for charge
Setting atom values ...
  0 settings made for charge
Setting atom values ...
  0 settings made for charge
Setting atom values ...
  0 settings made for charge
Setting atom values ...
  0 settings made for charge
Setting atom values ...
  0 settings made for charge
Setting atom values ...
  0 settings made for charge
Setting atom values ...
  0 settings made for charge
Setting atom values ...
  0 settings made for charge
Setting atom values ...
  0 settings made for charge
Setting atom values ...
  0 settings made for charge
Setting atom values ...
  0 settings made for charge
Setting atom values ...
  0 settings made for charge
Setting atom values ...
  0 settings made for charge
Setting atom values ...
  0 settings made for charge
Setting atom values ...
  0 settings made for charge
Setting atom values ...
  0 settings made for charge
Setting atom values ...
  0 settings made for charge
Setting atom values ...
  0 settings made for charge
Setting atom values ...
  0 settings made for charge
Setting atom values ...
  0 settings made for charge
Setting atom values ...
  0 settings made for charge
Setting atom values ...
  0 settings made for charge
Setting atom values ...
  0 settings made for charge
Setting atom values ...
  0 settings made for charge
Setting atom values ...
  0 settings made for charge
Setting atom values ...
  0 settings made for charge
Setting atom values ...
  0 settings made for charge
Setting atom values ...
  0 settings made for charge
Setting atom values ...
  0 settings made for charge
Setting atom values ...
  0 settings made for charge
Setting atom values ...
  0 settings made for charge
Setting atom values ...
  0 settings made for charge
Setting atom values ...
  0 settings made for charge
Setting atom values ...
  0 settings made for charge
Setting atom values ...
  0 settings made for charge
Setting atom values ...
  0 settings made for charge
Setting atom values ...
  0 settings made for charge
Setting atom values ...
  0 settings made for charge
Setting atom values ...
  0 settings made for charge
Setting atom values ...
  0 settings made for charge
Setting atom values ...
  0 settings made for charge
Setting atom values ...
  0 settings made for charge
Setting atom values ...
  0 settings made for charge
Setting atom values ...
  0 settings made for charge
Setting atom values ...
  0 settings made for charge
Setting atom values ...
  0 settings made for charge
Setting atom values ...
  0 settings made for charge
Setting atom values ...
  0 settings made for charge
Setting atom values ...
  0 settings made for charge
Setting atom values ...
  0 settings made for charge
Setting atom values ...
  0 settings made for charge
Setting atom values ...
  0 settings made for charge
Setting atom values ...
  0 settings made for charge
Setting atom values ...
  0 settings made for charge
Setting atom values ...
  0 settings made for charge
Setting atom values ...
  0 settings made for charge
Setting atom values ...
  0 settings made for charge
Setting atom values ...
  0 settings made for charge
Setting atom values ...
  0 settings made for charge
Setting atom values ...
  0 settings made for charge
Setting atom values ...
  0 settings made for charge
Setting atom values ...
  0 settings made for charge
Setting atom values ...
  0 settings made for charge
Setting atom values ...
  0 settings made for charge
Setting atom values ...
  0 settings made for charge
Setting atom values ...
  0 settings made for charge
Setting atom values ...
  0 settings made for charge
Setting atom values ...
  0 settings made for charge
Setting atom values ...
  0 settings made for charge
Setting atom values ...
  0 settings made for charge
Setting atom values ...
  0 settings made for charge
Setting atom values ...
  0 settings made for charge
Setting atom values ...
  0 settings made for charge
Setting atom values ...
  0 settings made for charge
Setting atom values ...
  0 settings made for charge
Setting atom values ...
  0 settings made for charge
Setting atom values ...
  0 settings made for charge
Setting atom values ...
  0 settings made for charge
Setting atom values ...
  0 settings made for charge
Setting atom values ...
  0 settings made for charge
Setting atom values ...
  0 settings made for charge
Setting atom values ...
  0 settings made for charge
Setting atom values ...
  0 settings made for charge
Setting atom values ...
  0 settings made for charge
Setting atom values ...
  0 settings made for charge
Setting atom values ...
  0 settings made for charge
Setting atom values ...
  0 settings made for charge
Setting atom values ...
  0 settings made for charge
Setting atom values ...
  0 settings made for charge
Setting atom values ...
  0 settings made for charge
Setting atom values ...
  0 settings made for charge
Setting atom values ...
  0 settings made for charge
Setting atom values ...
  0 settings made for charge
Setting atom values ...
  0 settings made for charge
Setting atom values ...
  0 settings made for charge
Setting atom values ...
  0 settings made for charge
Setting atom values ...
  0 settings made for charge
Setting atom values ...
  0 settings made for charge
Setting atom values ...
  0 settings made for charge
Setting atom values ...
  697 settings made for charge
Setting atom values ...
  0 settings made for charge
Setting atom values ...
  0 settings made for charge
Setting atom values ...
  0 settings made for charge
Setting atom values ...
  0 settings made for charge
Setting atom values ...
  122 settings made for charge
Setting atom values ...
  122 settings made for charge
Setting atom values ...
  244 settings made for charge
Setting atom values ...
  122 settings made for charge
Setting atom values ...
  0 settings made for charge
Setting atom values ...
  0 settings made for charge
Setting atom values ...
  0 settings made for charge
Setting atom values ...
  0 settings made for charge
Setting atom values ...
  0 settings made for charge
Setting atom values ...
  0 settings made for charge
Setting atom values ...
  0 settings made for charge
Setting atom values ...
  0 settings made for charge
Setting atom values ...
  0 settings made for charge
Setting atom values ...
  0 settings made for charge
Setting atom values ...
  0 settings made for charge
Setting atom values ...
  0 settings made for charge
Setting atom values ...
  0 settings made for charge
Setting atom values ...
  0 settings made for charge
Setting atom values ...
  0 settings made for charge
Setting atom values ...
  0 settings made for charge
Setting atom values ...
  0 settings made for charge
Setting atom values ...
  0 settings made for charge
Setting atom values ...
  0 settings made for charge
Setting atom values ...
  0 settings made for charge
Setting atom values ...
  0 settings made for charge
Setting atom values ...
  0 settings made for charge
Setting atom values ...
  0 settings made for charge
Setting atom values ...
  0 settings made for charge
Setting atom values ...
  0 settings made for charge
Setting atom values ...
  0 settings made for charge
Setting atom values ...
  0 settings made for charge
Setting atom values ...
  0 settings made for charge
Setting atom values ...
  0 settings made for charge
Setting atom values ...
  0 settings made for charge
Setting atom values ...
  0 settings made for charge
Setting atom values ...
  0 settings made for charge
Setting atom values ...
  0 settings made for charge
Setting atom values ...
  0 settings made for charge
Setting atom values ...
  0 settings made for charge
Setting atom values ...
  0 settings made for charge
Setting atom values ...
  0 settings made for charge
Setting atom values ...
  0 settings made for charge
Setting atom values ...
  0 settings made for charge
Setting atom values ...
  0 settings made for charge
Setting atom values ...
  0 settings made for charge
Setting atom values ...
  0 settings made for charge
Setting atom values ...
  0 settings made for charge
Setting atom values ...
  0 settings made for charge
Setting atom values ...
  0 settings made for charge
Setting atom values ...
  0 settings made for charge
Setting atom values ...
  0 settings made for charge
Setting atom values ...
  0 settings made for charge
Setting atom values ...
  0 settings made for charge
Setting atom values ...
  0 settings made for charge
Setting atom values ...
  0 settings made for charge
Setting atom values ...
  0 settings made for charge
Setting atom values ...
  0 settings made for charge
Setting atom values ...
  0 settings made for charge
Setting atom values ...
  0 settings made for charge
Setting atom values ...
  0 settings made for charge
Setting atom values ...
  0 settings made for charge
Setting atom values ...
  0 settings made for charge
Setting atom values ...
  0 settings made for charge
Setting atom values ...
  0 settings made for charge
Setting atom values ...
  0 settings made for charge
Setting atom values ...
  0 settings made for charge
Setting atom values ...
  0 settings made for charge
Setting atom values ...
  0 settings made for charge
Setting atom values ...
  0 settings made for charge
Setting atom values ...
  0 settings made for charge
Setting atom values ...
  0 settings made for charge
Setting atom values ...
  0 settings made for charge
Setting atom values ...
  0 settings made for charge
Setting atom values ...
  0 settings made for charge
Setting atom values ...
  0 settings made for charge
Setting atom values ...
  0 settings made for charge
Setting atom values ...
  0 settings made for charge
Setting atom values ...
  0 settings made for charge
Setting atom values ...
  0 settings made for charge
Setting atom values ...
  0 settings made for charge
Setting atom values ...
  0 settings made for charge
Setting atom values ...
  0 settings made for charge
Setting atom values ...
  0 settings made for charge
Setting atom values ...
  16 settings made for charge
Setting atom values ...
  16 settings made for charge
Setting atom values ...
  16 settings made for charge
Setting atom values ...
  16 settings made for charge
Setting atom values ...
  16 settings made for charge
Setting atom values ...
  8 settings made for charge
Setting atom values ...
  8 settings made for charge
Setting atom values ...
  8 settings made for charge
Setting atom values ...
  16 settings made for charge
Setting atom values ...
  8 settings made for charge
Setting atom values ...
  8 settings made for charge
Setting atom values ...
  0 settings made for charge
Setting atom values ...
  8 settings made for charge
Setting atom values ...
  8 settings made for charge
Setting atom values ...
  8 settings made for charge
Setting atom values ...
  0 settings made for charge
Setting atom values ...
  16 settings made for charge
Setting atom values ...
  0 settings made for charge
Setting atom values ...
  0 settings made for charge
Setting atom values ...
  0 settings made for charge
Setting atom values ...
  0 settings made for charge
Setting atom values ...
  0 settings made for charge
Setting atom values ...
  0 settings made for charge
Setting atom values ...
  0 settings made for charge
Setting atom values ...
  0 settings made for charge
Setting atom values ...
  0 settings made for charge
Setting atom values ...
  0 settings made for charge
Setting atom values ...
  0 settings made for charge
Setting atom values ...
  0 settings made for charge
Setting atom values ...
  0 settings made for charge
Setting atom values ...
  0 settings made for charge
Setting atom values ...
  0 settings made for charge
Setting atom values ...
  0 settings made for charge
Setting atom values ...
  0 settings made for charge
Setting atom values ...
  0 settings made for charge
Setting atom values ...
  0 settings made for charge
Setting atom values ...
  0 settings made for charge
Setting atom values ...
  0 settings made for charge
Setting atom values ...
  0 settings made for charge
Setting atom values ...
  0 settings made for charge
Setting atom values ...
  0 settings made for charge
Setting atom values ...
  0 settings made for charge
Setting atom values ...
  0 settings made for charge
Setting atom values ...
  0 settings made for charge
Setting atom values ...
  0 settings made for charge
Setting atom values ...
  0 settings made for charge
Setting atom values ...
  0 settings made for charge
Setting atom values ...
  0 settings made for charge
Setting atom values ...
  0 settings made for charge
Setting atom values ...
  0 settings made for charge
Setting atom values ...
  0 settings made for charge
Setting atom values ...
  0 settings made for charge
Setting atom values ...
  0 settings made for charge
Setting atom values ...
  0 settings made for charge
Setting atom values ...
  0 settings made for charge
Setting atom values ...
  0 settings made for charge
Setting atom values ...
  0 settings made for charge
Setting atom values ...
  0 settings made for charge
Setting atom values ...
  0 settings made for charge
Setting atom values ...
  0 settings made for charge
Setting atom values ...
  0 settings made for charge
Setting atom values ...
  0 settings made for charge
Setting atom values ...
  0 settings made for charge
Setting atom values ...
  0 settings made for charge
Setting atom values ...
  0 settings made for charge
Setting atom values ...
  0 settings made for charge
Setting atom values ...
  0 settings made for charge
Setting atom values ...
  0 settings made for charge
Setting atom values ...
  0 settings made for charge
Setting atom values ...
  0 settings made for charge
Setting atom values ...
  0 settings made for charge
Setting atom values ...
  0 settings made for charge
Setting atom values ...
  0 settings made for charge
Setting atom values ...
  0 settings made for charge
Setting atom values ...
  0 settings made for charge
Setting atom values ...
  0 settings made for charge
Setting atom values ...
  130 settings made for charge
Setting atom values ...
  0 settings made for charge
Setting atom values ...
  0 settings made for charge
Setting atom values ...
  0 settings made for charge
Setting atom values ...
  0 settings made for charge
Setting atom values ...
  0 settings made for charge
Setting atom values ...
  0 settings made for charge
Setting atom values ...
  0 settings made for charge
Setting atom values ...
  0 settings made for charge
Setting atom values ...
  0 settings made for charge
Setting atom values ...
  0 settings made for charge
Setting atom values ...
  122 settings made for charge
Setting atom values ...
  122 settings made for charge
Setting atom values ...
  0 settings made for charge
Setting atom values ...
  0 settings made for charge
Setting atom values ...
  0 settings made for charge
Setting atom values ...
  0 settings made for charge
Setting atom values ...
  115 settings made for charge
Setting atom values ...
  0 settings made for charge
Setting atom values ...
  0 settings made for charge
Setting atom values ...
  0 settings made for charge
Setting atom values ...
  0 settings made for charge
Setting atom values ...
  0 settings made for charge
Setting atom values ...
  0 settings made for charge
Setting atom values ...
  0 settings made for charge
Setting atom values ...
  0 settings made for charge
Setting atom values ...
  0 settings made for charge
Setting atom values ...
  0 settings made for charge
Setting atom values ...
  0 settings made for charge
Setting atom values ...
  0 settings made for charge
Setting atom values ...
  0 settings made for charge
Setting atom values ...
  0 settings made for charge
Setting atom values ...
  0 settings made for charge
Setting atom values ...
  0 settings made for charge
Setting atom values ...
  0 settings made for charge
Setting atom values ...
  0 settings made for charge
Setting atom values ...
  0 settings made for charge
Setting atom values ...
  0 settings made for charge
Setting atom values ...
  0 settings made for charge
Setting atom values ...
  0 settings made for charge
Setting atom values ...
  0 settings made for charge
Setting atom values ...
  0 settings made for charge
Setting atom values ...
  0 settings made for charge
Setting atom values ...
  0 settings made for charge
Setting atom values ...
  0 settings made for charge
Setting atom values ...
  0 settings made for charge
Setting atom values ...
  0 settings made for charge
Setting atom values ...
  0 settings made for charge
Setting atom values ...
  0 settings made for charge
Setting atom values ...
  0 settings made for charge
Setting atom values ...
  0 settings made for charge
Setting atom values ...
  0 settings made for charge
Setting atom values ...
  0 settings made for charge
Setting atom values ...
  0 settings made for charge
Setting atom values ...
  0 settings made for charge
Setting atom values ...
  0 settings made for charge
Setting atom values ...
  0 settings made for charge
Setting atom values ...
  0 settings made for charge
Setting atom values ...
  0 settings made for charge
Setting atom values ...
  0 settings made for charge
Setting atom values ...
  0 settings made for charge
Setting atom values ...
  0 settings made for charge
Setting atom values ...
  0 settings made for charge
Setting atom values ...
  0 settings made for charge
Setting atom values ...
  0 settings made for charge
Setting atom values ...
  0 settings made for charge
Setting atom values ...
  0 settings made for charge
Setting atom values ...
  0 settings made for charge
Setting atom values ...
  0 settings made for charge
Setting atom values ...
  0 settings made for charge
Setting atom values ...
  0 settings made for charge
Setting atom values ...
  0 settings made for charge
Setting atom values ...
  0 settings made for charge
Setting atom values ...
  0 settings made for charge
Setting atom values ...
  0 settings made for charge
Setting atom values ...
  0 settings made for charge
Setting atom values ...
  0 settings made for charge
Setting atom values ...
  0 settings made for charge
Setting atom values ...
  0 settings made for charge
Setting atom values ...
  0 settings made for charge
Setting atom values ...
  0 settings made for charge
Setting atom values ...
  0 settings made for charge
Setting atom values ...
  0 settings made for charge
Setting atom values ...
  0 settings made for charge
Setting atom values ...
  0 settings made for charge
Setting atom values ...
  0 settings made for charge
Setting atom values ...
  0 settings made for charge
Setting atom values ...
  0 settings made for charge
Setting atom values ...
  0 settings made for charge
Setting atom values ...
  0 settings made for charge
Setting atom values ...
  0 settings made for charge
Setting atom values ...
  0 settings made for charge
Setting atom values ...
  0 settings made for charge
Setting atom values ...
  0 settings made for charge
Setting atom values ...
  0 settings made for charge
Setting atom values ...
  0 settings made for charge
Setting atom values ...
  0 settings made for charge
Setting atom values ...
  0 settings made for charge
Setting atom values ...
  0 settings made for charge
Setting atom values ...
  0 settings made for charge
Setting atom values ...
  0 settings made for charge
Setting atom values ...
  0 settings made for charge
Setting atom values ...
  0 settings made for charge
Setting atom values ...
  0 settings made for charge
Setting atom values ...
  0 settings made for charge
Setting atom values ...
  0 settings made for charge
Setting atom values ...
  0 settings made for charge
Setting atom values ...
  0 settings made for charge
Setting atom values ...
  0 settings made for charge
Setting atom values ...
  0 settings made for charge
Setting atom values ...
  0 settings made for charge
Setting atom values ...
  115 settings made for charge
Setting atom values ...
  0 settings made for charge
Setting atom values ...
  0 settings made for charge
Setting atom values ...
  0 settings made for charge
Setting atom values ...
  0 settings made for charge
Setting atom values ...
  0 settings made for charge
Setting atom values ...
  115 settings made for charge
Setting atom values ...
  0 settings made for charge
Setting atom values ...
  0 settings made for charge
Setting atom values ...
  115 settings made for charge
Setting atom values ...
  0 settings made for charge
Setting atom values ...
  0 settings made for charge
Setting atom values ...
  0 settings made for charge
Setting atom values ...
  115 settings made for charge
Setting atom values ...
  0 settings made for charge
Setting atom values ...
  0 settings made for charge
Setting atom values ...
  0 settings made for charge
Setting atom values ...
  0 settings made for charge
Setting atom values ...
  0 settings made for charge
Setting atom values ...
  0 settings made for charge
Setting atom values ...
  0 settings made for charge
Setting atom values ...
  0 settings made for charge
Setting atom values ...
  0 settings made for charge
Setting atom values ...
  0 settings made for charge
Setting atom values ...
  0 settings made for charge
Setting atom values ...
  0 settings made for charge
Setting atom values ...
  0 settings made for charge
Setting atom values ...
  0 settings made for charge
Setting atom values ...
  0 settings made for charge
Setting atom values ...
  0 settings made for charge
Setting atom values ...
  0 settings made for charge
Setting atom values ...
  0 settings made for charge
Setting atom values ...
  0 settings made for charge
Setting atom values ...
  0 settings made for charge
Setting atom values ...
  0 settings made for charge
Setting atom values ...
  0 settings made for charge
Setting atom values ...
  0 settings made for charge
Setting atom values ...
  0 settings made for charge
Setting atom values ...
  0 settings made for charge
Setting atom values ...
  0 settings made for charge
Setting atom values ...
  0 settings made for charge
Setting atom values ...
  0 settings made for charge
Setting atom values ...
  0 settings made for charge
Setting atom values ...
  0 settings made for charge
Setting atom values ...
  0 settings made for charge
Setting atom values ...
  0 settings made for charge
Setting atom values ...
  0 settings made for charge
Setting atom values ...
  0 settings made for charge
Setting atom values ...
  0 settings made for charge
Setting atom values ...
  0 settings made for charge
Setting atom values ...
  0 settings made for charge
Setting atom values ...
  0 settings made for charge
Setting atom values ...
  0 settings made for charge
Setting atom values ...
  0 settings made for charge
Setting atom values ...
  0 settings made for charge
Setting atom values ...
  0 settings made for charge
Setting atom values ...
  0 settings made for charge
Setting atom values ...
  0 settings made for charge
Setting atom values ...
  0 settings made for charge
Setting atom values ...
  0 settings made for charge
Setting atom values ...
  0 settings made for charge
Setting atom values ...
  0 settings made for charge
Setting atom values ...
  0 settings made for charge
Setting atom values ...
  0 settings made for charge
Setting atom values ...
  0 settings made for charge
Setting atom values ...
  0 settings made for charge
Setting atom values ...
  0 settings made for charge
Setting atom values ...
  0 settings made for charge
Setting atom values ...
  0 settings made for charge
Setting atom values ...
  0 settings made for charge
Setting atom values ...
  0 settings made for charge
Setting atom values ...
  0 settings made for charge
Setting atom values ...
  0 settings made for charge
Setting atom values ...
  0 settings made for charge
Setting atom values ...
  0 settings made for charge
Setting atom values ...
  0 settings made for charge
Setting atom values ...
  0 settings made for charge
Setting atom values ...
  0 settings made for charge
Setting atom values ...
  0 settings made for charge
Setting atom values ...
  0 settings made for charge
Setting atom values ...
  0 settings made for charge
Setting atom values ...
  0 settings made for charge
Setting atom values ...
  0 settings made for charge
Setting atom values ...
  0 settings made for charge
Setting atom values ...
  0 settings made for charge
Setting atom values ...
  0 settings made for charge
Setting atom values ...
  0 settings made for charge
Setting atom values ...
  0 settings made for charge
Setting atom values ...
  0 settings made for charge
Setting atom values ...
  0 settings made for charge
Setting atom values ...
  0 settings made for charge
Setting atom values ...
  0 settings made for charge
Setting atom values ...
  0 settings made for charge
Setting atom values ...
  0 settings made for charge
Setting atom values ...
  0 settings made for charge
Setting atom values ...
  0 settings made for charge
Setting atom values ...
  0 settings made for charge
Setting atom values ...
  0 settings made for charge
Setting atom values ...
  0 settings made for charge
Setting atom values ...
  0 settings made for charge
Setting atom values ...
  0 settings made for charge
Setting atom values ...
  0 settings made for charge
Setting atom values ...
  0 settings made for charge
Setting atom values ...
  0 settings made for charge
Setting atom values ...
  0 settings made for charge
Setting atom values ...
  0 settings made for charge
Setting atom values ...
  0 settings made for charge
Setting atom values ...
  0 settings made for charge
Setting atom values ...
  0 settings made for charge
Setting atom values ...
  0 settings made for charge
Setting atom values ...
  0 settings made for charge
Setting atom values ...
  0 settings made for charge
Setting atom values ...
  0 settings made for charge
Setting atom values ...
  0 settings made for charge
Setting atom values ...
  0 settings made for charge
Setting atom values ...
  0 settings made for charge
Setting atom values ...
  0 settings made for charge
Setting atom values ...
  0 settings made for charge
Setting atom values ...
  0 settings made for charge
Setting atom values ...
  0 settings made for charge
Setting atom values ...
  0 settings made for charge
Setting atom values ...
  0 settings made for charge
Setting atom values ...
  0 settings made for charge
Setting atom values ...
  0 settings made for charge
Setting atom values ...
  0 settings made for charge
Setting atom values ...
  0 settings made for charge
Setting atom values ...
  0 settings made for charge
Setting atom values ...
  0 settings made for charge
Setting atom values ...
  0 settings made for charge
Setting atom values ...
  0 settings made for charge
Setting atom values ...
  0 settings made for charge
Setting atom values ...
  0 settings made for charge
Setting atom values ...
  0 settings made for charge
Setting atom values ...
  0 settings made for charge
Setting atom values ...
  0 settings made for charge
Setting atom values ...
  0 settings made for charge
Setting atom values ...
  0 settings made for charge
Setting atom values ...
  0 settings made for charge
Setting atom values ...
  0 settings made for charge
Setting atom values ...
  0 settings made for charge
Setting atom values ...
  0 settings made for charge
Setting atom values ...
  0 settings made for charge
Setting atom values ...
  0 settings made for charge
Setting atom values ...
  0 settings made for charge
Setting atom values ...
  0 settings made for charge
Setting atom values ...
  0 settings made for charge
Setting atom values ...
  0 settings made for charge
Setting atom values ...
  0 settings made for charge
Setting atom values ...
  0 settings made for charge
Setting atom values ...
  0 settings made for charge
Setting atom values ...
  0 settings made for charge
Setting atom values ...
  0 settings made for charge
Setting atom values ...
  0 settings made for charge
Setting atom values ...
  0 settings made for charge
Setting atom values ...
  0 settings made for charge
Setting atom values ...
  0 settings made for charge
Setting atom values ...
  0 settings made for charge
Setting atom values ...
  0 settings made for charge
Setting atom values ...
  0 settings made for charge
Setting atom values ...
  0 settings made for charge
Setting atom values ...
  0 settings made for charge
Setting atom values ...
  0 settings made for charge
Setting atom values ...
  0 settings made for charge
Setting atom values ...
  0 settings made for charge
Setting atom values ...
  0 settings made for charge
Setting atom values ...
  0 settings made for charge
Setting atom values ...
  0 settings made for charge
Setting atom values ...
  0 settings made for charge
Setting atom values ...
  0 settings made for charge
Setting atom values ...
  0 settings made for charge
Setting atom values ...
  0 settings made for charge
Setting atom values ...
  0 settings made for charge
Setting atom values ...
  0 settings made for charge
Setting atom values ...
  0 settings made for charge
Setting atom values ...
  0 settings made for charge
Setting atom values ...
  0 settings made for charge
Setting atom values ...
  122 settings made for charge
Setting atom values ...
  16 settings made for charge
  create bodies CPU = 0.0489672 secs
4729 rigid bodies with 18916 atoms
  0.941931 = max distance from body owner to body atom
WARNING: Temperature for thermo pressure is not for group all (../thermo.cpp:485)
PPPM initialization ...
  using 12-bit tables for long-range coulomb (../kspace.cpp:332)
  G vector (1/distance) = 0.228637
  grid = 36 48 48
  stencil order = 5
  estimated absolute RMS force accuracy = 0.0386228
  estimated relative force accuracy = 0.000116312
  using double precision KISS FFT
  3d grid and FFT values/proc = 5415 1296
WARNING: Neighbor exclusions used with KSpace solver may give inconsistent Coulombic energies (../neighbor.cpp:486)
Neighbor list info ...
  update every 1 steps, delay 0 steps, check yes
  max neighbors/atom: 2000, page size: 100000
  master list distance cutoff = 16
  ghost atom cutoff = 16
  binsize = 8, bins = 13 18 18
  1 neighbor lists, perpetual/occasional/extra = 1 0 0
  (1) pair lj/cut/coul/long, perpetual
      attributes: half, newton on
      pair build: half/bin/newton
      stencil: half/bin/3d/newton
      bin: standard
Setting up Verlet run ...
  Unit style    : real
  Current step  : 0
  Time step     : 0.1
Per MPI rank memory allocation (min/avg/max) = 10.5 | 18.36 | 38.18 Mbytes
Step Temp PotEng KinEng TotEng E_vdwl E_coul E_long E_pair Time 
       0    311.20696   -93689.619     8772.775   -84916.844    6808.6659    264678.86   -372488.72   -101001.19            0 
    1000    341.86952   -94548.533    9637.1379   -84911.395    11588.868    259069.81   -372518.78    -101860.1          100 
    2000          310   -95362.797    8738.7514   -86624.046    11394.381    258498.83   -372567.58   -102674.36          200 
    3000          310   -95735.876    8738.7514   -86997.125    11543.885    258052.83   -372644.16   -103047.44          300 
    4000          310     -95504.8    8738.7514   -86766.049    11154.679    258688.47   -372659.51   -102816.37          400 
    5000          310     -90653.4    8738.7514   -81914.649    14801.943    259841.47   -372608.38   -97964.968          500 
    6000          310   -88190.103    8738.7514   -79451.351    13596.295    263441.03   -372538.99    -95501.67          600 
    7000          310   -84871.259    8738.7514   -76132.508    12804.804    267472.62   -372460.25   -92182.826          700 
    8000          310   -83900.916    8738.7514   -75162.165    11396.581    269891.34   -372500.41   -91212.483          800 
    9000          310   -82818.223    8738.7514   -74079.471    11018.652    271310.93   -372459.37    -90129.79          900 
   10000          310   -82128.296    8738.7514   -73389.544     10438.99    272547.38   -372426.24   -89439.863         1000 
Loop time of 500.668 on 72 procs for 10000 steps with 67474 atoms

Performance: 0.173 ns/day, 139.075 hours/ns, 19.973 timesteps/s
98.7% CPU use with 72 MPI tasks x no OpenMP threads

MPI task timing breakdown:
Section |  min time  |  avg time  |  max time  |%varavg| %total
---------------------------------------------------------------
Pair    | 0.010434   | 47.234     | 333.83     |1479.0 |  9.43
Bond    | 0.013303   | 0.36506    | 2.6143     | 126.1 |  0.07
Kspace  | 105.58     | 384.57     | 433.41     | 502.7 | 76.81
Neigh   | 9.1394     | 9.1872     | 9.2635     |   0.9 |  1.83
Comm    | 8.9406     | 24.907     | 31.013     | 122.0 |  4.97
Output  | 0.5391     | 0.54396    | 0.54513    |   0.2 |  0.11
Modify  | 19.037     | 24.508     | 37.162     |  91.4 |  4.89
Other   |            | 9.357      |            |       |  1.87

Nlocal:    937.139 ave 2883 max 0 min
Histogram: 31 6 11 0 0 5 5 3 3 8
Nghost:    7434.92 ave 18425 max 860 min
Histogram: 12 23 1 12 0 12 0 0 0 12
Neighs:    307074 ave 2.2585e+06 max 0 min
Histogram: 60 0 0 0 1 1 1 4 2 3

Total # of neighbors = 22109295
Ave neighs/atom = 327.671
Ave special neighs/atom = 0.841035
Neighbor list builds = 54
Dangerous builds = 0
Total wall time: 0:08:24

real	8m28.073s
user	99m34.126s
sys	0m25.371s
