ITEM: TIMESTEP
100
ITEM: NUMBER OF ATOMS
130
ITEM: BOX BOUNDS pp pp pp
0.0000000000000000e+00 6.2000000000000000e+01
0.0000000000000000e+00 6.2000000000000000e+01
0.0000000000000000e+00 6.2000000000000000e+01
ITEM: ATOMS id mol type x y z ix iy iz 
10 1 81 23.8232 24.5839 30.7012 0 0 0 
58 1 80 20.8242 24.3315 30.2356 0 0 0 
73 1 80 23.4906 23.3297 29.7899 0 0 0 
108 1 85 20.7953 23.6766 29.3994 0 0 0 
111 1 85 25.136 21.5197 30.8756 0 0 0 
113 1 85 28.8651 21.7937 30.6348 0 0 0 
121 1 85 35.5731 25.493 26.6723 0 0 0 
25 1 82 33.4573 24.4712 28.4328 0 0 0 
26 1 81 32.5313 24.6306 29.6716 0 0 0 
62 1 80 34.442 23.447 28.6964 0 0 0 
78 1 85 32.7536 24.0697 27.7234 0 0 0 
79 1 85 32.7228 24.3883 30.6082 0 0 0 
80 1 85 32.034 23.7289 29.3545 0 0 0 
117 1 85 35.0404 23.3708 27.799 0 0 0 
118 1 85 34.1522 22.6486 29.3463 0 0 0 
119 1 85 35.1569 23.8603 29.3921 0 0 0 
1 1 90 20.8166 26.8757 29.4354 0 0 0 
2 1 90 21.6122 25.6611 29.7803 0 0 0 
3 1 92 22.8755 25.6902 29.9791 0 0 0 
4 1 92 23.5407 26.9189 29.6518 0 0 0 
5 1 90 22.7866 28.0161 28.9729 0 0 0 
6 1 90 21.4845 27.8821 28.7224 0 0 0 
54 1 81 20.7153 29.0523 28.3437 0 0 0 
55 1 80 20.5433 29.4888 26.9785 0 0 0 
56 1 80 19.3954 26.3652 29.1214 0 0 0 
57 1 80 23.5061 29.3311 28.5815 0 0 0 
96 1 85 20.9965 29.9342 28.9752 0 0 0 
97 1 85 19.6636 29.0315 28.5991 0 0 0 
98 1 85 20.8661 28.733 26.3198 0 0 0 
99 1 85 20.9946 30.3837 26.5137 0 0 0 
100 1 85 19.461 29.4816 26.7774 0 0 0 
101 1 85 19.4357 25.782 28.2482 0 0 0 
102 1 85 18.7227 27.096 29.0346 0 0 0 
103 1 85 18.9255 25.6697 29.6608 0 0 0 
104 1 85 23.268 29.5984 27.6178 0 0 0 
105 1 85 24.5668 29.334 28.5848 0 0 0 
106 1 85 23.3868 30.3318 28.9589 0 0 0 
7 1 81 25.085 26.9923 29.9568 0 0 0 
8 1 92 26.0444 25.8308 30.6287 0 0 0 
114 1 85 27.3787 21.384 30.8731 0 0 0 
15 1 90 28.0659 27.0984 31.0545 0 0 0 
16 1 92 29.4933 27.1333 30.7131 0 0 0 
17 1 92 30.2767 25.9008 30.5445 0 0 0 
22 1 92 30.1597 28.2721 30.3737 0 0 0 
27 1 108 29.7037 29.6976 30.7006 0 0 0 
28 1 92 30.5155 30.8307 30.3905 0 0 0 
70 1 80 25.8709 27.3295 28.703 0 0 0 
120 1 85 35.0957 27.2834 26.6801 0 0 0 
124 1 110 28.1461 30.7555 30.7265 0 0 0 
123 1 110 34.0057 30.3493 30.1861 0 0 0 
122 1 85 35.7083 26.6618 28.194 0 0 0 
19 1 90 31.5714 25.8534 29.8932 0 0 0 
20 1 90 32.0141 27.119 29.6787 0 0 0 
21 1 92 31.4572 28.3545 29.9137 0 0 0 
23 1 81 33.2923 27.0944 28.8099 0 0 0 
24 1 82 33.7309 25.9148 27.7604 0 0 0 
29 1 92 31.9008 30.7722 30.4383 0 0 0 
30 1 108 32.4049 29.5584 30.1103 0 0 0 
63 1 80 35.1797 26.3368 27.2855 0 0 0 
64 1 109 33.7491 29.2751 30.2329 0 0 0 
75 1 85 33.7698 27.9339 28.3817 0 0 0 
76 1 85 34.1532 27.1706 29.3011 0 0 0 
77 1 85 33.1059 26.2806 26.9611 0 0 0 
107 1 85 21.3807 23.9684 31.0022 0 0 0 
109 1 85 20.1541 24.5321 31.0566 0 0 0 
74 1 91 27.4955 28.0318 30.6086 0 0 0 
72 1 80 23.2916 24.612 32.1387 0 0 0 
65 1 109 28.3982 29.8028 31.0017 0 0 0 
112 1 85 24.1772 22.1523 32.1041 0 0 0 
71 1 80 24.9363 28.1399 31.1863 0 0 0 
11 1 90 26.0147 23.4353 31.3997 0 0 0 
12 1 90 27.3412 23.3852 31.3391 0 0 0 
13 1 92 28.1589 24.6117 31.3143 0 0 0 
18 1 108 29.5676 24.6982 31.0623 0 0 0 
59 1 80 25.2428 22.1442 31.714 0 0 0 
60 1 80 28.0253 22.1314 31.2552 0 0 0 
61 1 109 30.4676 23.5756 31.4167 0 0 0 
110 1 85 25.8268 21.7171 32.4894 0 0 0 
116 1 110 30.7178 23.5596 32.3416 0 0 0 
115 1 85 28.3661 21.8264 32.1403 0 0 0 
9 1 92 25.3565 24.6896 30.9188 0 0 0 
14 1 92 27.3886 25.8704 31.115 0 0 0 
33 1 90 30.4424 33.3699 30.5324 0 0 0 
34 1 173 29.6992 32.1375 30.4068 0 0 0 
35 1 81 29.5674 34.7096 30.7882 0 0 0 
36 1 81 30.1258 35.8767 29.8251 0 0 0 
66 1 223 28.6365 32.2795 29.7994 0 0 0 
81 1 85 28.4985 34.6111 30.5131 0 0 0 
83 1 85 29.734 36.9692 29.9755 0 0 0 
84 1 85 29.8678 35.6095 28.8171 0 0 0 
31 1 173 32.6951 32.2166 30.397 0 0 0 
32 1 90 31.8707 33.5169 30.4884 0 0 0 
37 1 90 31.7119 36.0072 29.894 0 0 0 
38 1 90 32.4042 34.7486 30.0773 0 0 0 
39 1 461 33.759 34.6765 30.2989 0 0 0 
40 1 90 34.4726 35.8976 30.0754 0 0 0 
41 1 90 33.9063 37.0487 29.8988 0 0 0 
42 1 90 32.4309 37.1696 29.718 0 0 0 
48 1 90 36.7739 36.8066 30.0667 0 0 0 
49 1 90 35.8478 35.7249 30.0477 0 0 0 
67 1 223 33.8588 32.069 30.2935 0 0 0 
53 1 90 38.2462 36.6709 30.1102 0 0 0 
52 1 90 38.6834 35.5195 30.8663 0 0 0 
86 1 85 31.1402 38.3513 30.638 0 0 0 
43 1 81 31.7969 38.4418 29.6372 0 0 0 
44 1 81 32.7952 39.4952 30.2033 0 0 0 
45 1 81 34.0524 39.3342 29.4519 0 0 0 
46 1 82 34.7386 38.2662 30.0805 0 0 0 
47 1 81 36.1973 38.1079 29.5181 0 0 0 
85 1 85 31.6057 38.969 28.7199 0 0 0 
88 1 85 32.707 40.3115 29.6688 0 0 0 
89 1 85 34.9197 40.0562 29.4368 0 0 0 
90 1 85 33.9189 39.0592 28.3916 0 0 0 
92 1 85 36.2139 38.2433 28.4585 0 0 0 
93 1 85 36.8336 38.8171 30.0539 0 0 0 
127 1 85 39.6982 38.5392 30.5234 0 0 0 
68 1 80 39.2868 37.932 29.7308 0 0 0 
125 1 85 38.8931 38.5272 28.9115 0 0 0 
126 1 85 40.1952 37.4105 29.43 0 0 0 
50 1 90 36.5486 34.5134 30.6983 0 0 0 
82 1 85 29.8106 35.0807 31.7455 0 0 0 
91 1 85 35.0766 38.3255 31.0312 0 0 0 
130 1 85 40.092 34.8021 32.4846 0 0 0 
51 1 90 37.8007 34.4562 31.0967 0 0 0 
129 1 85 41.0549 35.292 31.0078 0 0 0 
69 1 80 40.1416 35.3868 31.5525 0 0 0 
95 1 91 38.4241 33.7408 31.7596 0 0 0 
87 1 85 32.9071 39.698 31.229 0 0 0 
128 1 85 40.2194 36.2629 32.075 0 0 0 
94 1 91 35.9331 33.6955 30.9204 0 0 0 
ITEM: TIMESTEP
200
ITEM: NUMBER OF ATOMS
130
ITEM: BOX BOUNDS pp pp pp
0.0000000000000000e+00 6.2000000000000000e+01
0.0000000000000000e+00 6.2000000000000000e+01
0.0000000000000000e+00 6.2000000000000000e+01
ITEM: ATOMS id mol type x y z ix iy iz 
10 1 81 23.6955 24.3646 30.1362 0 0 0 
58 1 80 20.6404 24.113 29.1291 0 0 0 
73 1 80 23.6689 23.1874 28.9971 0 0 0 
108 1 85 20.3249 23.7406 28.1313 0 0 0 
71 1 80 24.8104 28.0413 30.1173 0 0 0 
113 1 85 28.5444 21.8482 30.4434 0 0 0 
121 1 85 34.701 25.0791 26.5504 0 0 0 
25 1 82 33.4376 24.5035 28.763 0 0 0 
26 1 81 31.9342 24.6146 29.1204 0 0 0 
62 1 80 34.5545 24.1387 29.8385 0 0 0 
78 1 85 33.6493 23.6292 28.1639 0 0 0 
79 1 85 31.9778 23.6734 29.6355 0 0 0 
80 1 85 31.2806 24.2861 28.1081 0 0 0 
117 1 85 35.5165 24.6538 29.833 0 0 0 
118 1 85 34.7095 23.1771 30.4043 0 0 0 
119 1 85 34.2971 24.5994 30.7652 0 0 0 
1 1 90 20.9671 26.6563 28.1516 0 0 0 
2 1 90 21.4568 25.4253 28.818 0 0 0 
3 1 92 22.9495 25.5911 29.2361 0 0 0 
4 1 92 23.5482 26.7516 28.7623 0 0 0 
5 1 90 23.0711 27.569 27.8962 0 0 0 
6 1 90 21.6643 27.6945 27.6711 0 0 0 
54 1 81 20.8618 28.8174 27.1321 0 0 0 
55 1 80 20.4338 28.5784 25.5699 0 0 0 
56 1 80 19.4872 26.5075 27.7696 0 0 0 
57 1 80 23.8837 28.4003 26.9225 0 0 0 
96 1 85 21.3298 29.7096 26.8756 0 0 0 
97 1 85 19.8734 29.0213 27.6965 0 0 0 
98 1 85 20.141 29.567 25.1128 0 0 0 
99 1 85 19.8064 27.7108 25.205 0 0 0 
100 1 85 21.4767 28.3677 25.2435 0 0 0 
101 1 85 19.7023 25.8917 26.8822 0 0 0 
102 1 85 19.0384 27.4779 27.7774 0 0 0 
103 1 85 19.0972 25.9163 28.6781 0 0 0 
104 1 85 23.4993 29.3131 26.6183 0 0 0 
105 1 85 24.2163 27.656 26.2826 0 0 0 
106 1 85 24.7898 29.0385 27.3724 0 0 0 
7 1 81 24.9819 26.7985 29.2509 0 0 0 
8 1 92 25.7834 25.6268 29.9509 0 0 0 
18 1 108 29.3994 24.8758 30.6228 0 0 0 
15 1 90 27.9702 27.1569 29.7507 0 0 0 
16 1 92 29.3077 27.3145 30.0036 0 0 0 
17 1 92 30.0727 26.053 30.0112 0 0 0 
22 1 92 30.0807 28.5722 29.8287 0 0 0 
27 1 108 29.379 29.7318 30.0322 0 0 0 
28 1 92 30.2116 30.8428 30.0179 0 0 0 
70 1 80 25.9144 26.8515 27.8582 0 0 0 
120 1 85 34.9531 26.9176 26.4647 0 0 0 
74 1 91 27.295 27.8267 29.269 0 0 0 
123 1 110 33.8155 30.5053 29.9948 0 0 0 
122 1 85 35.8708 26.1551 27.5933 0 0 0 
19 1 90 31.4785 25.9607 29.6368 0 0 0 
20 1 90 32.153 27.0416 29.3508 0 0 0 
21 1 92 31.4995 28.4431 29.695 0 0 0 
23 1 81 33.6193 26.9042 29.137 0 0 0 
24 1 82 33.6966 25.8644 28.0784 0 0 0 
29 1 92 31.6666 30.83 30.1709 0 0 0 
30 1 108 32.2918 29.5833 30.0651 0 0 0 
63 1 80 34.8153 26.0179 27.0665 0 0 0 
64 1 109 33.6843 29.7263 29.8818 0 0 0 
75 1 85 33.8091 27.8959 28.7034 0 0 0 
76 1 85 33.9893 27.0353 30.2264 0 0 0 
77 1 85 32.7178 25.9904 27.4631 0 0 0 
109 1 85 19.7966 24.0937 29.7093 0 0 0 
65 1 109 28.1676 29.764 30.4711 0 0 0 
14 1 92 27.1961 25.9075 30.1265 0 0 0 
107 1 85 21.0579 23.2471 29.6712 0 0 0 
13 1 92 27.9797 24.8401 30.6617 0 0 0 
9 1 92 25.1546 24.6143 30.6032 0 0 0 
114 1 85 27.0495 21.1279 30.7999 0 0 0 
124 1 110 27.6275 29.7458 29.7255 0 0 0 
72 1 80 22.8086 23.9536 31.4295 0 0 0 
115 1 85 28.1213 21.9089 31.9668 0 0 0 
112 1 85 24.6349 23.5042 32.8884 0 0 0 
116 1 110 29.3743 23.5991 31.855 0 0 0 
11 1 90 25.8926 23.6801 31.341 0 0 0 
12 1 90 27.3294 23.5219 30.9495 0 0 0 
111 1 85 24.5421 22.1083 31.8841 0 0 0 
110 1 85 25.7987 22.4331 33.1162 0 0 0 
59 1 80 25.1478 22.7915 32.2531 0 0 0 
60 1 80 27.7232 22.0258 30.9799 0 0 0 
61 1 109 29.8373 23.7467 31.0196 0 0 0 
33 1 90 30.2733 33.3783 30.6025 0 0 0 
34 1 173 29.5445 32.2716 29.9803 0 0 0 
51 1 90 37.931 34.1108 30.0205 0 0 0 
36 1 81 30.2731 35.9128 30.694 0 0 0 
66 1 223 28.5313 32.454 29.3798 0 0 0 
91 1 85 34.7859 38.121 30.6329 0 0 0 
128 1 85 40.6249 35.829 30.9509 0 0 0 
84 1 85 29.7001 36.7325 30.1592 0 0 0 
31 1 173 32.1314 32.1181 31.0489 0 0 0 
32 1 90 31.622 33.4191 30.4978 0 0 0 
37 1 90 31.6456 35.6822 30.0674 0 0 0 
38 1 90 32.4184 34.4726 30.2649 0 0 0 
39 1 461 33.5716 34.3856 29.7721 0 0 0 
40 1 90 34.4934 35.3651 29.4587 0 0 0 
41 1 90 33.9796 36.6275 29.6116 0 0 0 
42 1 90 32.61 36.8072 29.8627 0 0 0 
48 1 90 36.8382 36.4635 29.0629 0 0 0 
49 1 90 35.945 35.2566 29.2805 0 0 0 
94 1 91 35.9606 33.1968 29.4337 0 0 0 
53 1 90 38.3154 36.4089 29.2375 0 0 0 
52 1 90 38.7592 35.2773 29.9486 0 0 0 
86 1 85 31.1166 38.8158 30.1083 0 0 0 
43 1 81 31.9864 38.2942 29.8139 0 0 0 
44 1 81 33.0639 39.4953 29.9894 0 0 0 
45 1 81 34.1206 39.121 28.9905 0 0 0 
46 1 82 34.8634 37.843 29.6308 0 0 0 
47 1 81 36.1388 37.89 28.8636 0 0 0 
85 1 85 31.8608 38.1948 28.7522 0 0 0 
88 1 85 32.7945 40.4946 29.9162 0 0 0 
89 1 85 34.8607 39.9875 29.0726 0 0 0 
90 1 85 33.7243 39.0558 28.0077 0 0 0 
92 1 85 36.1557 38.382 28.0133 0 0 0 
93 1 85 36.546 38.6931 29.5401 0 0 0 
127 1 85 38.8011 38.3355 29.814 0 0 0 
68 1 80 38.9945 37.5445 29.1011 0 0 0 
125 1 85 39.0485 38.1026 28.1072 0 0 0 
126 1 85 39.9199 37.2556 29.2731 0 0 0 
50 1 90 36.5766 34.0254 29.5481 0 0 0 
95 1 91 38.1688 33.2952 30.3904 0 0 0 
69 1 80 39.991 35.0823 30.7984 0 0 0 
129 1 85 40.2872 34.3365 30.1123 0 0 0 
82 1 85 29.3684 34.6152 32.2042 0 0 0 
130 1 85 39.6916 34.3255 31.5854 0 0 0 
81 1 85 28.7971 34.6216 30.5393 0 0 0 
67 1 223 32.8721 31.8369 32.0302 0 0 0 
35 1 81 29.6068 34.648 31.1224 0 0 0 
87 1 85 33.3711 39.2942 30.9577 0 0 0 
83 1 85 30.4848 36.4173 31.7208 0 0 0 
ITEM: TIMESTEP
300
ITEM: NUMBER OF ATOMS
130
ITEM: BOX BOUNDS pp pp pp
0.0000000000000000e+00 6.2000000000000000e+01
0.0000000000000000e+00 6.2000000000000000e+01
0.0000000000000000e+00 6.2000000000000000e+01
ITEM: ATOMS id mol type x y z ix iy iz 
10 1 81 23.4907 24.4091 28.9719 0 0 0 
58 1 80 20.8932 23.658 28.0435 0 0 0 
73 1 80 23.2339 22.9387 28.8417 0 0 0 
108 1 85 19.8249 23.5605 27.6173 0 0 0 
71 1 80 25.3939 27.984 28.2549 0 0 0 
113 1 85 28.1723 21.9412 30.9396 0 0 0 
121 1 85 35.8847 25.3014 27.0047 0 0 0 
25 1 82 33.584 24.9484 29.0024 0 0 0 
26 1 81 31.9715 24.6531 29.4628 0 0 0 
62 1 80 34.6317 25.0618 30.2513 0 0 0 
78 1 85 33.7722 23.8995 28.6595 0 0 0 
79 1 85 31.8749 23.8349 30.1624 0 0 0 
80 1 85 32.0574 24.1358 28.4453 0 0 0 
117 1 85 35.6737 24.7292 29.9686 0 0 0 
72 1 80 22.5451 25.0074 30.1368 0 0 0 
119 1 85 34.7361 26.1237 30.3433 0 0 0 
1 1 90 20.7457 25.9425 27.0411 0 0 0 
2 1 90 21.5354 24.98 27.6938 0 0 0 
3 1 92 22.8639 25.1445 27.8999 0 0 0 
4 1 92 23.572 26.4499 27.5101 0 0 0 
5 1 90 22.7701 27.3321 26.5834 0 0 0 
6 1 90 21.4952 26.9982 26.2336 0 0 0 
54 1 81 20.622 28.0414 25.2752 0 0 0 
55 1 80 21.0375 28.324 23.8674 0 0 0 
56 1 80 19.2832 25.9771 27.3611 0 0 0 
57 1 80 23.5711 28.2794 25.6851 0 0 0 
96 1 85 20.5684 29.0791 25.7498 0 0 0 
97 1 85 19.6192 27.3835 25.2532 0 0 0 
98 1 85 22.1346 28.148 23.5245 0 0 0 
99 1 85 20.6705 29.2839 23.4054 0 0 0 
100 1 85 20.4098 27.7514 23.0763 0 0 0 
101 1 85 19.2394 25.6366 28.4449 0 0 0 
102 1 85 18.9217 25.4132 26.6254 0 0 0 
103 1 85 18.6536 26.9772 27.0246 0 0 0 
104 1 85 23.677 27.7791 24.6994 0 0 0 
105 1 85 24.3311 28.6852 26.2821 0 0 0 
106 1 85 22.7937 29.0166 25.1978 0 0 0 
7 1 81 25.1781 26.674 27.6547 0 0 0 
8 1 92 25.7744 25.6289 28.823 0 0 0 
18 1 108 29.0902 24.8661 30.4173 0 0 0 
15 1 90 27.8242 26.7911 28.7659 0 0 0 
16 1 92 29.193 27.0295 29.2856 0 0 0 
17 1 92 29.8681 25.9713 29.7536 0 0 0 
22 1 92 29.6645 28.4409 29.5462 0 0 0 
27 1 108 29.0711 29.6728 29.3712 0 0 0 
28 1 92 29.8625 30.7946 30.0786 0 0 0 
70 1 80 25.7573 26.2802 26.1875 0 0 0 
120 1 85 35.7801 27.1107 27.4571 0 0 0 
74 1 91 27.5321 27.4028 28.1699 0 0 0 
12 1 90 26.9542 23.8042 30.5425 0 0 0 
122 1 85 36.2654 26.1207 28.701 0 0 0 
19 1 90 31.1404 25.8785 29.5236 0 0 0 
20 1 90 31.8843 27.0837 29.1858 0 0 0 
21 1 92 31.1956 28.3304 29.5362 0 0 0 
23 1 81 33.1987 27.2677 28.1026 0 0 0 
24 1 82 33.9563 25.8618 28.0158 0 0 0 
29 1 92 31.3226 30.5949 30.3737 0 0 0 
30 1 108 31.907 29.4391 30.0576 0 0 0 
63 1 80 35.5365 26.0547 27.6926 0 0 0 
64 1 109 33.1946 29.1854 30.6026 0 0 0 
75 1 85 32.915 27.8837 27.2358 0 0 0 
76 1 85 34.0601 27.7645 28.5623 0 0 0 
77 1 85 33.5441 25.1355 27.1369 0 0 0 
109 1 85 20.7576 23.5839 29.0794 0 0 0 
65 1 109 27.821 29.7765 29.1513 0 0 0 
14 1 92 27.1497 25.7266 29.1966 0 0 0 
107 1 85 21.2079 22.8316 27.4981 0 0 0 
13 1 92 27.8201 24.8355 30.0937 0 0 0 
9 1 92 24.9085 24.7354 29.4863 0 0 0 
11 1 90 25.5174 23.7126 30.3687 0 0 0 
124 1 110 27.5959 29.6294 29.9912 0 0 0 
116 1 110 30.297 24.1532 30.8001 0 0 0 
59 1 80 24.9636 23.5624 31.8223 0 0 0 
115 1 85 27.5833 22.5562 32.5752 0 0 0 
112 1 85 24.8515 24.284 32.5459 0 0 0 
110 1 85 25.3681 22.9184 32.5735 0 0 0 
123 1 110 33.4923 28.5669 31.4537 0 0 0 
61 1 109 29.5562 23.9636 31.2823 0 0 0 
111 1 85 24.2246 22.9407 31.8057 0 0 0 
114 1 85 26.8591 21.5748 31.2829 0 0 0 
60 1 80 27.496 22.5495 31.4064 0 0 0 
118 1 85 33.975 24.9348 31.1512 0 0 0 
33 1 90 30.145 33.2944 29.9673 0 0 0 
34 1 173 29.2057 32.2113 30.3208 0 0 0 
51 1 90 37.8867 33.4907 29.3731 0 0 0 
128 1 85 40.438 35.0488 28.3113 0 0 0 
66 1 223 28.0465 32.3624 30.6617 0 0 0 
91 1 85 35.2996 38.3899 29.7869 0 0 0 
129 1 85 39.4224 34.4516 27.16 0 0 0 
82 1 85 28.446 34.5401 29.3782 0 0 0 
69 1 80 39.8086 34.2582 28.208 0 0 0 
32 1 90 31.6062 33.2378 30.4204 0 0 0 
37 1 90 31.9666 35.7953 30.4367 0 0 0 
38 1 90 32.453 34.4044 30.3416 0 0 0 
39 1 461 33.8623 34.2124 30.1384 0 0 0 
40 1 90 34.6001 35.2323 29.8541 0 0 0 
41 1 90 34.0801 36.6165 29.8345 0 0 0 
42 1 90 32.816 36.9328 30.2761 0 0 0 
48 1 90 36.6508 35.9792 28.8304 0 0 0 
49 1 90 35.882 34.9743 29.3934 0 0 0 
94 1 91 35.8254 33.1849 30.4864 0 0 0 
53 1 90 38.005 35.8336 28.441 0 0 0 
52 1 90 38.5176 34.4258 28.5331 0 0 0 
86 1 85 31.6344 38.3313 30.9487 0 0 0 
43 1 81 32.0339 38.2197 29.9553 0 0 0 
44 1 81 33.0715 39.2025 29.359 0 0 0 
45 1 81 34.052 38.6023 28.2739 0 0 0 
46 1 82 34.9025 37.73 29.0331 0 0 0 
47 1 81 35.995 37.2215 28.3758 0 0 0 
85 1 85 31.4414 38.1044 29.0091 0 0 0 
88 1 85 32.7586 40.0234 28.7295 0 0 0 
89 1 85 34.4743 39.6058 28.0387 0 0 0 
90 1 85 33.3493 38.2223 27.5618 0 0 0 
92 1 85 35.6077 36.8171 27.6246 0 0 0 
93 1 85 36.355 38.1312 27.9062 0 0 0 
127 1 85 38.5302 37.5202 29.2199 0 0 0 
68 1 80 38.9882 37.101 28.3801 0 0 0 
125 1 85 38.9363 38.0582 27.8775 0 0 0 
126 1 85 39.9166 36.8602 28.7686 0 0 0 
50 1 90 36.5155 33.8231 29.7562 0 0 0 
95 1 91 38.1609 32.3524 29.5938 0 0 0 
81 1 85 29.6332 34.8383 28.6026 0 0 0 
87 1 85 33.7128 39.5103 30.0099 0 0 0 
31 1 173 32.0627 31.8289 30.6633 0 0 0 
130 1 85 40.143 33.427 28.5813 0 0 0 
35 1 81 29.5268 34.6906 29.603 0 0 0 
36 1 81 30.4048 35.8867 30.5054 0 0 0 
84 1 85 29.6513 36.6265 29.9976 0 0 0 
83 1 85 30.3476 35.9448 31.6469 0 0 0 
67 1 223 32.8671 31.8037 31.4742 0 0 0 
ITEM: TIMESTEP
400
ITEM: NUMBER OF ATOMS
130
ITEM: BOX BOUNDS pp pp pp
0.0000000000000000e+00 6.2000000000000000e+01
0.0000000000000000e+00 6.2000000000000000e+01
0.0000000000000000e+00 6.2000000000000000e+01
ITEM: ATOMS id mol type x y z ix iy iz 
10 1 81 23.0198 24.5562 28.1199 0 0 0 
58 1 80 20.8276 23.3108 26.2785 0 0 0 
73 1 80 22.6438 23.1039 28.7692 0 0 0 
108 1 85 20.1963 22.7261 25.6966 0 0 0 
71 1 80 24.8403 28.2006 27.4886 0 0 0 
61 1 109 29.513 24.573 30.5723 0 0 0 
121 1 85 36.2078 24.7584 28.0851 0 0 0 
25 1 82 33.7374 25.1553 29.5004 0 0 0 
26 1 81 32.1697 24.8379 29.4631 0 0 0 
62 1 80 33.8672 25.9112 30.9424 0 0 0 
78 1 85 34.1522 24.1703 29.7547 0 0 0 
79 1 85 32.1514 24.4246 30.4814 0 0 0 
80 1 85 32.0359 24.0961 28.6913 0 0 0 
124 1 110 27.3 29.4129 28.7487 0 0 0 
72 1 80 21.8355 25.1791 28.8895 0 0 0 
11 1 90 25.2121 24.1464 29.7075 0 0 0 
1 1 90 20.8474 25.5633 25.2266 0 0 0 
2 1 90 21.5259 24.6223 26.0726 0 0 0 
3 1 92 22.8722 24.9242 26.6227 0 0 0 
4 1 92 23.6791 25.9036 25.9549 0 0 0 
5 1 90 23.0148 26.8779 24.9273 0 0 0 
6 1 90 21.686 26.5258 24.5471 0 0 0 
54 1 81 20.9373 27.2175 23.3328 0 0 0 
55 1 80 20.8417 26.2546 22.1776 0 0 0 
56 1 80 19.3921 25.8932 25.7542 0 0 0 
57 1 80 23.7575 28.0108 24.0915 0 0 0 
96 1 85 21.3451 28.2738 22.9392 0 0 0 
97 1 85 19.8841 27.3811 23.4599 0 0 0 
98 1 85 21.0186 26.5707 21.1215 0 0 0 
99 1 85 19.7519 26.0263 22.1404 0 0 0 
100 1 85 21.3312 25.1883 22.174 0 0 0 
101 1 85 19.379 27.0222 26.2651 0 0 0 
102 1 85 19.4387 25.1176 26.573 0 0 0 
103 1 85 18.6241 25.6823 24.948 0 0 0 
104 1 85 24.2832 28.8147 24.6147 0 0 0 
105 1 85 23.1035 28.0489 23.0633 0 0 0 
106 1 85 24.7741 27.5938 24.1596 0 0 0 
7 1 81 24.811 26.6194 26.9336 0 0 0 
8 1 92 25.3126 25.8591 28.1665 0 0 0 
18 1 108 28.7358 25.3281 29.7403 0 0 0 
15 1 90 27.5284 27.0374 27.9596 0 0 0 
16 1 92 29.0167 27.2512 28.3269 0 0 0 
17 1 92 29.697 26.0255 28.83 0 0 0 
22 1 92 29.8076 28.3669 28.7866 0 0 0 
27 1 108 29.3572 29.7404 29.0813 0 0 0 
28 1 92 29.965 30.6568 29.8677 0 0 0 
70 1 80 25.7177 26.6329 25.8961 0 0 0 
120 1 85 36.6007 26.2759 27.5987 0 0 0 
74 1 91 27.0244 28.034 27.4393 0 0 0 
12 1 90 26.7242 24.1113 29.9977 0 0 0 
122 1 85 36.3923 26.1925 29.112 0 0 0 
19 1 90 31.1661 26.1256 28.9371 0 0 0 
20 1 90 31.8668 27.1812 28.5628 0 0 0 
21 1 92 31.2531 28.2833 29.145 0 0 0 
23 1 81 33.3392 27.2631 28.2283 0 0 0 
24 1 82 34.2308 25.9167 28.2395 0 0 0 
29 1 92 31.3314 30.5111 29.9772 0 0 0 
30 1 108 31.784 29.1508 30.0122 0 0 0 
63 1 80 35.9398 25.6679 28.1737 0 0 0 
64 1 109 32.9105 28.8472 30.6119 0 0 0 
75 1 85 33.7553 27.2828 27.1709 0 0 0 
76 1 85 33.8398 28.2188 28.4822 0 0 0 
77 1 85 33.6997 25.4319 27.3549 0 0 0 
109 1 85 20.0601 22.9136 27.0884 0 0 0 
65 1 109 28.1728 29.7726 28.6193 0 0 0 
14 1 92 26.7863 25.8597 28.3364 0 0 0 
107 1 85 21.6286 22.6288 26.2801 0 0 0 
13 1 92 27.5124 25.0211 29.3003 0 0 0 
9 1 92 24.5078 24.7344 28.6481 0 0 0 
59 1 80 24.295 23.3813 30.6129 0 0 0 
110 1 85 23.6998 22.3963 30.6861 0 0 0 
119 1 85 33.23 26.8185 30.9223 0 0 0 
116 1 110 29.1567 23.6053 30.524 0 0 0 
113 1 85 27.9315 22.7076 30.8793 0 0 0 
115 1 85 27.0261 23.3154 32.1342 0 0 0 
112 1 85 24.5252 23.0707 31.6866 0 0 0 
117 1 85 34.9714 26.4175 31.1187 0 0 0 
118 1 85 33.5809 25.417 31.9791 0 0 0 
123 1 110 32.6987 29.5442 30.9136 0 0 0 
60 1 80 27.0205 23.1022 31.1293 0 0 0 
114 1 85 26.6053 22.1923 31.2829 0 0 0 
111 1 85 23.7548 24.3823 30.8737 0 0 0 
33 1 90 30.0573 33.1606 30.2198 0 0 0 
34 1 173 29.2649 31.7889 30.4788 0 0 0 
51 1 90 37.3449 33.0019 28.7526 0 0 0 
128 1 85 37.8202 31.9559 26.3576 0 0 0 
84 1 85 30.479 35.3129 28.2527 0 0 0 
91 1 85 35.4517 37.8901 29.8854 0 0 0 
129 1 85 39.6844 32.9771 26.1199 0 0 0 
82 1 85 28.9333 35.0157 30.2891 0 0 0 
69 1 80 38.664 32.8024 26.5522 0 0 0 
32 1 90 31.5657 33.0239 30.2592 0 0 0 
37 1 90 31.8946 35.2144 29.6938 0 0 0 
38 1 90 32.4233 34.0965 30.1471 0 0 0 
39 1 461 33.7969 34.0733 29.9757 0 0 0 
40 1 90 34.5267 35.1248 29.6636 0 0 0 
41 1 90 34.0403 36.3463 29.7068 0 0 0 
42 1 90 32.6005 36.4727 29.5866 0 0 0 
48 1 90 36.5541 35.5791 28.1196 0 0 0 
49 1 90 35.7498 34.7704 29.081 0 0 0 
94 1 91 35.8749 33.2688 30.3202 0 0 0 
53 1 90 37.4955 35.0551 27.3938 0 0 0 
52 1 90 37.8552 33.6618 27.6141 0 0 0 
86 1 85 31.5226 38.146 29.488 0 0 0 
43 1 81 32.0201 37.7852 28.9896 0 0 0 
44 1 81 32.9602 39.1788 29.0618 0 0 0 
45 1 81 34.3378 38.9492 28.6107 0 0 0 
46 1 82 34.9015 37.529 28.9805 0 0 0 
47 1 81 36.2701 37.2087 28.3182 0 0 0 
85 1 85 31.5703 37.7838 27.998 0 0 0 
88 1 85 32.4896 40.1356 28.5939 0 0 0 
89 1 85 35.2327 39.5625 28.7284 0 0 0 
90 1 85 34.0405 38.5711 27.53 0 0 0 
92 1 85 36.0372 37.524 27.3558 0 0 0 
93 1 85 37.158 37.6305 28.5701 0 0 0 
127 1 85 38.1153 37.1479 26.9008 0 0 0 
68 1 80 38.1792 36.0483 26.5117 0 0 0 
125 1 85 38.3152 35.9004 25.4274 0 0 0 
126 1 85 39.197 35.3705 26.5511 0 0 0 
50 1 90 36.2085 33.6258 29.408 0 0 0 
95 1 91 37.8618 32.2591 29.1954 0 0 0 
81 1 85 28.373 34.2863 29.3767 0 0 0 
87 1 85 33.4031 39.1929 29.9942 0 0 0 
31 1 173 32.1083 31.7583 30.7439 0 0 0 
130 1 85 38.6134 33.3898 25.5901 0 0 0 
35 1 81 29.4534 34.3693 29.7258 0 0 0 
36 1 81 30.5078 35.4162 29.285 0 0 0 
83 1 85 30.1938 36.3166 29.8432 0 0 0 
67 1 223 32.9476 31.4869 31.5782 0 0 0 
66 1 223 28.3597 31.7935 31.0797 0 0 0 
ITEM: TIMESTEP
500
ITEM: NUMBER OF ATOMS
130
ITEM: BOX BOUNDS pp pp pp
0.0000000000000000e+00 6.2000000000000000e+01
0.0000000000000000e+00 6.2000000000000000e+01
0.0000000000000000e+00 6.2000000000000000e+01
ITEM: ATOMS id mol type x y z ix iy iz 
10 1 81 23.1785 24.9548 27.0478 0 0 0 
58 1 80 20.9577 23.7908 25.7374 0 0 0 
73 1 80 23.5913 23.4579 26.7592 0 0 0 
108 1 85 21.2642 23.3611 26.6122 0 0 0 
71 1 80 24.9847 28.1116 26.0688 0 0 0 
61 1 109 28.8442 24.1021 30.0267 0 0 0 
121 1 85 35.1894 25.2067 29.6114 0 0 0 
25 1 82 32.7458 24.412 29.2138 0 0 0 
26 1 81 31.4277 24.5055 28.6605 0 0 0 
116 1 110 29.7257 23.9088 29.6802 0 0 0 
78 1 85 32.9152 23.2761 29.0625 0 0 0 
79 1 85 30.8012 23.6491 28.939 0 0 0 
80 1 85 31.6853 24.4217 27.8189 0 0 0 
115 1 85 26.0219 22.4962 29.1934 0 0 0 
72 1 80 21.8846 24.8695 27.9973 0 0 0 
11 1 90 24.7004 24.4135 29.0207 0 0 0 
1 1 90 21.6515 25.0946 23.8302 0 0 0 
2 1 90 21.8268 24.8738 25.1237 0 0 0 
3 1 92 23.0391 25.3449 25.7466 0 0 0 
4 1 92 23.9239 26.2047 25.0096 0 0 0 
5 1 90 23.5489 26.5825 23.5685 0 0 0 
6 1 90 22.4186 25.8798 22.9315 0 0 0 
54 1 81 22.4004 25.8869 21.314 0 0 0 
55 1 80 21.5868 24.8961 20.356 0 0 0 
56 1 80 20.2024 25.0144 23.1162 0 0 0 
57 1 80 23.9131 27.5957 22.704 0 0 0 
96 1 85 23.2355 26.2861 20.6337 0 0 0 
97 1 85 21.6142 26.6588 21.0999 0 0 0 
98 1 85 20.5664 24.5651 20.6923 0 0 0 
99 1 85 22.4543 24.2518 20.3221 0 0 0 
100 1 85 21.446 25.5199 19.4179 0 0 0 
101 1 85 19.928 26.0991 22.6444 0 0 0 
102 1 85 19.7061 24.5703 24.0888 0 0 0 
103 1 85 19.8778 24.2176 22.5035 0 0 0 
104 1 85 23.1768 28.4084 22.2367 0 0 0 
105 1 85 24.3686 27.1854 22.0059 0 0 0 
106 1 85 24.5481 28.4846 23.0997 0 0 0 
7 1 81 25.3349 26.7885 25.7354 0 0 0 
8 1 92 25.5622 26.127 27.2735 0 0 0 
18 1 108 28.6294 24.9668 29.0795 0 0 0 
15 1 90 27.9032 27.1259 27.8562 0 0 0 
16 1 92 29.0158 27.3592 28.6801 0 0 0 
17 1 92 29.4674 26.1455 29.3263 0 0 0 
22 1 92 29.6525 28.616 29.0272 0 0 0 
27 1 108 29.02 29.9137 28.857 0 0 0 
28 1 92 29.6851 30.8508 29.5404 0 0 0 
70 1 80 26.4558 26.539 24.6284 0 0 0 
120 1 85 35.7241 25.2343 28.3153 0 0 0 
74 1 91 27.6237 27.708 27.1896 0 0 0 
12 1 90 26.2498 24.1062 29.1559 0 0 0 
122 1 85 35.237 26.645 29.2079 0 0 0 
19 1 90 30.9362 25.8864 28.9634 0 0 0 
20 1 90 31.6879 27.0882 28.6423 0 0 0 
21 1 92 31.035 28.3366 29.1854 0 0 0 
23 1 81 33.034 26.765 28.116 0 0 0 
24 1 82 33.6336 25.3633 28.4373 0 0 0 
29 1 92 31.1055 30.7002 29.5959 0 0 0 
30 1 108 31.8124 29.5295 29.2691 0 0 0 
63 1 80 35.0445 25.6933 28.8554 0 0 0 
64 1 109 33.2922 29.7006 29.0418 0 0 0 
75 1 85 32.5884 26.8851 27.0018 0 0 0 
76 1 85 33.9177 27.4122 27.9482 0 0 0 
77 1 85 33.4866 24.866 27.4721 0 0 0 
109 1 85 21.1079 23.0242 25.1139 0 0 0 
65 1 109 27.6112 29.9481 28.2935 0 0 0 
14 1 92 26.7974 26.1669 27.9599 0 0 0 
107 1 85 19.8618 24.2424 25.9135 0 0 0 
13 1 92 27.1388 24.9769 28.6687 0 0 0 
9 1 92 24.5193 25.2145 27.8169 0 0 0 
59 1 80 23.513 24.0464 30.0491 0 0 0 
60 1 80 26.6961 22.8508 29.5543 0 0 0 
114 1 85 27.5739 22.4408 28.8613 0 0 0 
123 1 110 33.9219 29.1593 29.0393 0 0 0 
111 1 85 23.421 23.1051 30.0816 0 0 0 
112 1 85 22.7328 24.8867 30.1696 0 0 0 
62 1 80 33.0419 24.3202 30.8546 0 0 0 
124 1 110 26.6705 30.2455 28.3388 0 0 0 
113 1 85 26.6854 22.5404 30.7013 0 0 0 
110 1 85 24.3674 24.0082 30.6282 0 0 0 
119 1 85 32.389 23.6667 31.5683 0 0 0 
118 1 85 34.0336 24.3379 31.2452 0 0 0 
117 1 85 32.5779 25.3309 31.1246 0 0 0 
33 1 90 29.9703 33.2797 29.8506 0 0 0 
34 1 173 29.0272 32.1414 29.8348 0 0 0 
51 1 90 36.6412 32.0844 27.7264 0 0 0 
128 1 85 37.1017 32.4127 24.7215 0 0 0 
84 1 85 29.73 35.811 28.4195 0 0 0 
91 1 85 35.5371 36.8356 29.6772 0 0 0 
129 1 85 37.8137 31.3016 24.7429 0 0 0 
83 1 85 29.9609 36.6805 29.871 0 0 0 
69 1 80 37.9587 32.0359 25.5634 0 0 0 
32 1 90 31.3589 33.2009 30.2892 0 0 0 
37 1 90 31.707 35.5096 29.3828 0 0 0 
38 1 90 32.1997 34.1178 29.7558 0 0 0 
39 1 461 33.3481 33.5826 29.3923 0 0 0 
40 1 90 34.0598 34.4516 28.8328 0 0 0 
41 1 90 33.8481 35.902 28.8746 0 0 0 
42 1 90 32.6097 36.3326 28.6933 0 0 0 
48 1 90 36.1833 34.8348 27.4017 0 0 0 
49 1 90 35.2423 34.0196 28.0268 0 0 0 
94 1 91 35.1381 32.1775 28.9018 0 0 0 
53 1 90 36.9332 34.2107 26.3324 0 0 0 
52 1 90 37.3871 32.8216 26.7562 0 0 0 
86 1 85 31.3725 38.1517 28.1514 0 0 0 
43 1 81 32.238 37.7996 28.3264 0 0 0 
44 1 81 32.9376 38.7497 29.2171 0 0 0 
45 1 81 34.3936 38.2427 28.5661 0 0 0 
46 1 82 35.0093 36.8877 28.7068 0 0 0 
47 1 81 35.9516 36.5212 27.4845 0 0 0 
85 1 85 32.7007 37.4733 27.4906 0 0 0 
88 1 85 33.1276 39.7527 28.835 0 0 0 
89 1 85 34.8611 39.0886 29.1491 0 0 0 
90 1 85 34.5344 38.6498 27.4842 0 0 0 
92 1 85 35.5688 36.8802 26.4349 0 0 0 
93 1 85 36.7512 36.8895 27.8343 0 0 0 
127 1 85 37.3878 36.156 25.476 0 0 0 
68 1 80 37.2 35.0601 25.1481 0 0 0 
125 1 85 36.5258 35.0361 24.0545 0 0 0 
126 1 85 38.208 34.6787 24.8375 0 0 0 
50 1 90 35.729 32.7591 28.2693 0 0 0 
95 1 91 36.8684 30.9217 28 0 0 0 
81 1 85 28.2111 34.7272 29.163 0 0 0 
87 1 85 32.6785 38.2976 30.346 0 0 0 
31 1 173 31.7936 31.6633 30.446 0 0 0 
130 1 85 39.1179 32.3665 25.3719 0 0 0 
35 1 81 29.2367 34.676 29.8315 0 0 0 
36 1 81 30.1631 35.6872 29.318 0 0 0 
66 1 223 27.8904 32.285 29.8487 0 0 0 
82 1 85 29.2277 35.2338 30.8771 0 0 0 
67 1 223 32.2 31.345 31.411 0 0 0 
ITEM: TIMESTEP
600
ITEM: NUMBER OF ATOMS
130
ITEM: BOX BOUNDS pp pp pp
0.0000000000000000e+00 6.2000000000000000e+01
0.0000000000000000e+00 6.2000000000000000e+01
0.0000000000000000e+00 6.2000000000000000e+01
ITEM: ATOMS id mol type x y z ix iy iz 
10 1 81 22.8666 24.9384 25.9182 0 0 0 
58 1 80 20.5644 24.1787 23.7646 0 0 0 
73 1 80 21.7681 23.9781 26.221 0 0 0 
108 1 85 20.6704 23.0575 23.6351 0 0 0 
71 1 80 24.4858 27.4073 25.1825 0 0 0 
61 1 109 28.339 24.5377 29.6752 0 0 0 
121 1 85 34.8069 26.2937 30.3468 0 0 0 
25 1 82 32.314 24.1345 28.8193 0 0 0 
26 1 81 30.9861 24.3518 27.9689 0 0 0 
95 1 91 35.7141 30.5046 26.0154 0 0 0 
78 1 85 32.9904 23.4288 28.1189 0 0 0 
79 1 85 30.2401 23.5724 27.9413 0 0 0 
80 1 85 31.4616 24.6173 27.1961 0 0 0 
115 1 85 26.0628 21.7135 28.0026 0 0 0 
72 1 80 21.8228 26.1791 26.55 0 0 0 
11 1 90 24.5276 24.4049 27.9197 0 0 0 
1 1 90 22.4275 24.8115 21.9852 0 0 0 
2 1 90 22.0014 24.8904 23.3208 0 0 0 
3 1 92 22.8031 25.2107 24.3035 0 0 0 
4 1 92 24.1912 25.9367 23.9075 0 0 0 
5 1 90 24.6267 25.9633 22.5401 0 0 0 
6 1 90 23.8265 25.3734 21.5743 0 0 0 
54 1 81 24.0583 25.5809 19.9913 0 0 0 
55 1 80 24.509 24.1926 19.3415 0 0 0 
56 1 80 21.6064 24.4535 20.8434 0 0 0 
57 1 80 25.6144 27.153 22.1951 0 0 0 
96 1 85 24.6384 26.38 19.8095 0 0 0 
97 1 85 23.3114 25.8536 19.1378 0 0 0 
98 1 85 25.6151 23.8511 19.2819 0 0 0 
99 1 85 24.1059 23.9098 18.2791 0 0 0 
100 1 85 24.0092 23.3191 19.9267 0 0 0 
101 1 85 20.4397 24.024 20.9931 0 0 0 
102 1 85 22.0026 24.1193 20.017 0 0 0 
103 1 85 21.4632 25.6538 20.7667 0 0 0 
104 1 85 25.0992 27.5754 21.3267 0 0 0 
105 1 85 26.5433 26.7588 21.9727 0 0 0 
106 1 85 25.5469 28.1555 22.863 0 0 0 
7 1 81 25.1452 26.1449 24.9034 0 0 0 
8 1 92 25.4578 25.3582 26.241 0 0 0 
18 1 108 28.2625 24.9046 28.4309 0 0 0 
15 1 90 27.0853 27.2345 27.256 0 0 0 
16 1 92 28.4691 27.174 27.6773 0 0 0 
17 1 92 29.0303 25.9537 27.8779 0 0 0 
22 1 92 29.0247 28.3518 28.3554 0 0 0 
27 1 108 28.2161 29.6485 28.7976 0 0 0 
28 1 92 28.9213 30.8215 29.0517 0 0 0 
70 1 80 26.6523 26.3253 24.5568 0 0 0 
120 1 85 33.704 24.9972 30.5427 0 0 0 
74 1 91 26.6497 28.0929 26.8711 0 0 0 
12 1 90 25.8847 24.0985 28.4205 0 0 0 
122 1 85 34.8929 24.7199 29.4274 0 0 0 
19 1 90 30.3874 25.6802 28.0643 0 0 0 
20 1 90 31.2282 26.9482 28.2344 0 0 0 
21 1 92 30.4497 28.2387 28.6112 0 0 0 
23 1 81 32.7794 26.8361 28.3474 0 0 0 
24 1 82 33.5065 25.3719 28.5224 0 0 0 
29 1 92 30.4658 30.611 29.1193 0 0 0 
30 1 108 31.1981 29.4662 28.8454 0 0 0 
63 1 80 34.2944 25.4148 29.7674 0 0 0 
64 1 109 32.595 29.4245 28.833 0 0 0 
75 1 85 33.024 27.1795 27.3392 0 0 0 
76 1 85 33.2023 27.393 29.1702 0 0 0 
77 1 85 34.0742 25.1609 27.6056 0 0 0 
109 1 85 20.0002 24.7405 23.1546 0 0 0 
65 1 109 26.9383 29.6264 28.9565 0 0 0 
14 1 92 26.5099 25.809 27.1309 0 0 0 
107 1 85 20.034 23.9898 24.7906 0 0 0 
13 1 92 27.0445 24.7966 27.8442 0 0 0 
9 1 92 24.302 24.5883 26.4714 0 0 0 
59 1 80 23.531 24.3518 28.9957 0 0 0 
60 1 80 26.7009 22.6099 28.6172 0 0 0 
114 1 85 27.6472 22.6021 27.8745 0 0 0 
123 1 110 32.6084 30.0455 29.7619 0 0 0 
111 1 85 23.8358 23.7377 29.8438 0 0 0 
112 1 85 22.5407 24.3262 28.7729 0 0 0 
62 1 80 32.0028 23.4456 30.2498 0 0 0 
124 1 110 27.2278 28.8615 28.612 0 0 0 
113 1 85 26.5803 22.5201 29.67 0 0 0 
110 1 85 23.8151 25.3984 29.1727 0 0 0 
116 1 110 28.5622 25.417 29.836 0 0 0 
117 1 85 31.1423 22.6017 30.1215 0 0 0 