LAMMPS (3 Mar 2020)
Reading data file ...
  orthogonal box = (0 -20 -20) to (99.7477 120 120)
  2 by 3 by 4 MPI processor grid
  reading atoms ...
  67474 atoms
  reading velocities ...
  67474 velocities
  scanning bonds ...
  3 = max bonds/atom
  scanning angles ...
  3 = max angles/atom
  reading bonds ...
  14187 bonds
  reading angles ...
  14187 angles
Finding 1-2 1-3 1-4 neighbors ...
  special bond factors lj:   0          0          0.5       
  special bond factors coul: 0          0          0.5       
  3 = max # of 1-2 neighbors
  2 = max # of 1-3 neighbors
  2 = max # of 1-4 neighbors
  3 = max # of special neighbors
  special bonds CPU = 0.241703 secs
  read_data CPU = 0.923537 secs
48558 atoms in group gCoal
18916 atoms in group gH2O
18916 atoms in group gMobile
Setting atom values ...
  0 settings made for charge
Setting atom values ...
  0 settings made for charge
Setting atom values ...
  0 settings made for charge
Setting atom values ...
  0 settings made for charge
Setting atom values ...
  0 settings made for charge
Setting atom values ...
  0 settings made for charge
Setting atom values ...
  0 settings made for charge
Setting atom values ...
  0 settings made for charge
Setting atom values ...
  0 settings made for charge
Setting atom values ...
  0 settings made for charge
Setting atom values ...
  0 settings made for charge
Setting atom values ...
  0 settings made for charge
Setting atom values ...
  0 settings made for charge
Setting atom values ...
  0 settings made for charge
Setting atom values ...
  0 settings made for charge
Setting atom values ...
  0 settings made for charge
Setting atom values ...
  0 settings made for charge
Setting atom values ...
  0 settings made for charge
Setting atom values ...
  0 settings made for charge
Setting atom values ...
  0 settings made for charge
Setting atom values ...
  0 settings made for charge
Setting atom values ...
  0 settings made for charge
Setting atom values ...
  0 settings made for charge
Setting atom values ...
  0 settings made for charge
Setting atom values ...
  0 settings made for charge
Setting atom values ...
  0 settings made for charge
Setting atom values ...
  0 settings made for charge
Setting atom values ...
  0 settings made for charge
Setting atom values ...
  0 settings made for charge
Setting atom values ...
  0 settings made for charge
Setting atom values ...
  0 settings made for charge
Setting atom values ...
  0 settings made for charge
Setting atom values ...
  0 settings made for charge
Setting atom values ...
  0 settings made for charge
Setting atom values ...
  0 settings made for charge
Setting atom values ...
  0 settings made for charge
Setting atom values ...
  0 settings made for charge
Setting atom values ...
  0 settings made for charge
Setting atom values ...
  0 settings made for charge
Setting atom values ...
  0 settings made for charge
Setting atom values ...
  0 settings made for charge
Setting atom values ...
  0 settings made for charge
Setting atom values ...
  0 settings made for charge
Setting atom values ...
  0 settings made for charge
Setting atom values ...
  0 settings made for charge
Setting atom values ...
  0 settings made for charge
Setting atom values ...
  0 settings made for charge
Setting atom values ...
  0 settings made for charge
Setting atom values ...
  0 settings made for charge
Setting atom values ...
  0 settings made for charge
Setting atom values ...
  0 settings made for charge
Setting atom values ...
  0 settings made for charge
Setting atom values ...
  0 settings made for charge
Setting atom values ...
  0 settings made for charge
Setting atom values ...
  0 settings made for charge
Setting atom values ...
  0 settings made for charge
Setting atom values ...
  0 settings made for charge
Setting atom values ...
  0 settings made for charge
Setting atom values ...
  0 settings made for charge
Setting atom values ...
  0 settings made for charge
Setting atom values ...
  0 settings made for charge
Setting atom values ...
  0 settings made for charge
Setting atom values ...
  0 settings made for charge
Setting atom values ...
  0 settings made for charge
Setting atom values ...
  4729 settings made for charge
Setting atom values ...
  9458 settings made for charge
Setting atom values ...
  4729 settings made for charge
Setting atom values ...
  0 settings made for charge
Setting atom values ...
  0 settings made for charge
Setting atom values ...
  0 settings made for charge
Setting atom values ...
  0 settings made for charge
Setting atom values ...
  0 settings made for charge
Setting atom values ...
  0 settings made for charge
Setting atom values ...
  0 settings made for charge
Setting atom values ...
  0 settings made for charge
Setting atom values ...
  0 settings made for charge
Setting atom values ...
  0 settings made for charge
Setting atom values ...
  0 settings made for charge
Setting atom values ...
  0 settings made for charge
Setting atom values ...
  604 settings made for charge
Setting atom values ...
  3490 settings made for charge
Setting atom values ...
  1172 settings made for charge
Setting atom values ...
  0 settings made for charge
Setting atom values ...
  8 settings made for charge
Setting atom values ...
  15743 settings made for charge
Setting atom values ...
  974 settings made for charge
Setting atom values ...
  230 settings made for charge
Setting atom values ...
  0 settings made for charge
Setting atom values ...
  230 settings made for charge
Setting atom values ...
  4497 settings made for charge
Setting atom values ...
  2179 settings made for charge
Setting atom values ...
  9085 settings made for charge
Setting atom values ...
  862 settings made for charge
Setting atom values ...
  888 settings made for charge
Setting atom values ...
  0 settings made for charge
Setting atom values ...
  115 settings made for charge
Setting atom values ...
  115 settings made for charge
Setting atom values ...
  0 settings made for charge
Setting atom values ...
  0 settings made for charge
Setting atom values ...
  0 settings made for charge
Setting atom values ...
  0 settings made for charge
Setting atom values ...
  0 settings made for charge
Setting atom values ...
  0 settings made for charge
Setting atom values ...
  0 settings made for charge
Setting atom values ...
  0 settings made for charge
Setting atom values ...
  0 settings made for charge
Setting atom values ...
  0 settings made for charge
Setting atom values ...
  406 settings made for charge
Setting atom values ...
  406 settings made for charge
Setting atom values ...
  406 settings made for charge
Setting atom values ...
  0 settings made for charge
Setting atom values ...
  0 settings made for charge
Setting atom values ...
  0 settings made for charge
Setting atom values ...
  0 settings made for charge
Setting atom values ...
  0 settings made for charge
Setting atom values ...
  0 settings made for charge
Setting atom values ...
  0 settings made for charge
Setting atom values ...
  0 settings made for charge
Setting atom values ...
  230 settings made for charge
Setting atom values ...
  0 settings made for charge
Setting atom values ...
  345 settings made for charge
Setting atom values ...
  230 settings made for charge
Setting atom values ...
  0 settings made for charge
Setting atom values ...
  230 settings made for charge
Setting atom values ...
  575 settings made for charge
Setting atom values ...
  0 settings made for charge
Setting atom values ...
  1035 settings made for charge
Setting atom values ...
  0 settings made for charge
Setting atom values ...
  0 settings made for charge
Setting atom values ...
  0 settings made for charge
Setting atom values ...
  0 settings made for charge
Setting atom values ...
  0 settings made for charge
Setting atom values ...
  0 settings made for charge
Setting atom values ...
  0 settings made for charge
Setting atom values ...
  0 settings made for charge
Setting atom values ...
  0 settings made for charge
Setting atom values ...
  0 settings made for charge
Setting atom values ...
  0 settings made for charge
Setting atom values ...
  0 settings made for charge
Setting atom values ...
  0 settings made for charge
Setting atom values ...
  805 settings made for charge
Setting atom values ...
  0 settings made for charge
Setting atom values ...
  0 settings made for charge
Setting atom values ...
  0 settings made for charge
Setting atom values ...
  0 settings made for charge
Setting atom values ...
  0 settings made for charge
Setting atom values ...
  0 settings made for charge
Setting atom values ...
  0 settings made for charge
Setting atom values ...
  0 settings made for charge
Setting atom values ...
  0 settings made for charge
Setting atom values ...
  0 settings made for charge
Setting atom values ...
  0 settings made for charge
Setting atom values ...
  0 settings made for charge
Setting atom values ...
  0 settings made for charge
Setting atom values ...
  0 settings made for charge
Setting atom values ...
  0 settings made for charge
Setting atom values ...
  0 settings made for charge
Setting atom values ...
  0 settings made for charge
Setting atom values ...
  0 settings made for charge
Setting atom values ...
  0 settings made for charge
Setting atom values ...
  115 settings made for charge
Setting atom values ...
  0 settings made for charge
Setting atom values ...
  115 settings made for charge
Setting atom values ...
  0 settings made for charge
Setting atom values ...
  0 settings made for charge
Setting atom values ...
  0 settings made for charge
Setting atom values ...
  0 settings made for charge
Setting atom values ...
  0 settings made for charge
Setting atom values ...
  0 settings made for charge
Setting atom values ...
  230 settings made for charge
Setting atom values ...
  0 settings made for charge
Setting atom values ...
  0 settings made for charge
Setting atom values ...
  0 settings made for charge
Setting atom values ...
  0 settings made for charge
Setting atom values ...
  131 settings made for charge
Setting atom values ...
  0 settings made for charge
Setting atom values ...
  0 settings made for charge
Setting atom values ...
  0 settings made for charge
Setting atom values ...
  0 settings made for charge
Setting atom values ...
  0 settings made for charge
Setting atom values ...
  0 settings made for charge
Setting atom values ...
  0 settings made for charge
Setting atom values ...
  0 settings made for charge
Setting atom values ...
  0 settings made for charge
Setting atom values ...
  0 settings made for charge
Setting atom values ...
  0 settings made for charge
Setting atom values ...
  0 settings made for charge
Setting atom values ...
  0 settings made for charge
Setting atom values ...
  0 settings made for charge
Setting atom values ...
  0 settings made for charge
Setting atom values ...
  0 settings made for charge
Setting atom values ...
  0 settings made for charge
Setting atom values ...
  0 settings made for charge
Setting atom values ...
  0 settings made for charge
Setting atom values ...
  0 settings made for charge
Setting atom values ...
  0 settings made for charge
Setting atom values ...
  0 settings made for charge
Setting atom values ...
  0 settings made for charge
Setting atom values ...
  0 settings made for charge
Setting atom values ...
  0 settings made for charge
Setting atom values ...
  0 settings made for charge
Setting atom values ...
  0 settings made for charge
Setting atom values ...
  0 settings made for charge
Setting atom values ...
  0 settings made for charge
Setting atom values ...
  0 settings made for charge
Setting atom values ...
  0 settings made for charge
Setting atom values ...
  0 settings made for charge
Setting atom values ...
  0 settings made for charge
Setting atom values ...
  0 settings made for charge
Setting atom values ...
  0 settings made for charge
Setting atom values ...
  0 settings made for charge
Setting atom values ...
  0 settings made for charge
Setting atom values ...
  0 settings made for charge
Setting atom values ...
  0 settings made for charge
Setting atom values ...
  0 settings made for charge
Setting atom values ...
  0 settings made for charge
Setting atom values ...
  0 settings made for charge
Setting atom values ...
  0 settings made for charge
Setting atom values ...
  0 settings made for charge
Setting atom values ...
  0 settings made for charge
Setting atom values ...
  8 settings made for charge
Setting atom values ...
  268 settings made for charge
Setting atom values ...
  399 settings made for charge
Setting atom values ...
  0 settings made for charge
Setting atom values ...
  0 settings made for charge
Setting atom values ...
  0 settings made for charge
Setting atom values ...
  0 settings made for charge
Setting atom values ...
  0 settings made for charge
Setting atom values ...
  0 settings made for charge
Setting atom values ...
  0 settings made for charge
Setting atom values ...
  0 settings made for charge
Setting atom values ...
  0 settings made for charge
Setting atom values ...
  0 settings made for charge
Setting atom values ...
  0 settings made for charge
Setting atom values ...
  0 settings made for charge
Setting atom values ...
  0 settings made for charge
Setting atom values ...
  0 settings made for charge
Setting atom values ...
  0 settings made for charge
Setting atom values ...
  0 settings made for charge
Setting atom values ...
  0 settings made for charge
Setting atom values ...
  0 settings made for charge
Setting atom values ...
  0 settings made for charge
Setting atom values ...
  0 settings made for charge
Setting atom values ...
  0 settings made for charge
Setting atom values ...
  0 settings made for charge
Setting atom values ...
  0 settings made for charge
Setting atom values ...
  0 settings made for charge
Setting atom values ...
  0 settings made for charge
Setting atom values ...
  0 settings made for charge
Setting atom values ...
  0 settings made for charge
Setting atom values ...
  0 settings made for charge
Setting atom values ...
  0 settings made for charge
Setting atom values ...
  0 settings made for charge
Setting atom values ...
  0 settings made for charge
Setting atom values ...
  0 settings made for charge
Setting atom values ...
  0 settings made for charge
Setting atom values ...
  0 settings made for charge
Setting atom values ...
  0 settings made for charge
Setting atom values ...
  0 settings made for charge
Setting atom values ...
  0 settings made for charge
Setting atom values ...
  0 settings made for charge
Setting atom values ...
  0 settings made for charge
Setting atom values ...
  0 settings made for charge
Setting atom values ...
  0 settings made for charge
Setting atom values ...
  0 settings made for charge
Setting atom values ...
  0 settings made for charge
Setting atom values ...
  0 settings made for charge
Setting atom values ...
  0 settings made for charge
Setting atom values ...
  0 settings made for charge
Setting atom values ...
  0 settings made for charge
Setting atom values ...
  0 settings made for charge
Setting atom values ...
  0 settings made for charge
Setting atom values ...
  0 settings made for charge
Setting atom values ...
  0 settings made for charge
Setting atom values ...
  0 settings made for charge
Setting atom values ...
  0 settings made for charge
Setting atom values ...
  0 settings made for charge
Setting atom values ...
  0 settings made for charge
Setting atom values ...
  0 settings made for charge
Setting atom values ...
  0 settings made for charge
Setting atom values ...
  0 settings made for charge
Setting atom values ...
  0 settings made for charge
Setting atom values ...
  0 settings made for charge
Setting atom values ...
  0 settings made for charge
Setting atom values ...
  0 settings made for charge
Setting atom values ...
  0 settings made for charge
Setting atom values ...
  0 settings made for charge
Setting atom values ...
  0 settings made for charge
Setting atom values ...
  0 settings made for charge
Setting atom values ...
  0 settings made for charge
Setting atom values ...
  0 settings made for charge
Setting atom values ...
  0 settings made for charge
Setting atom values ...
  0 settings made for charge
Setting atom values ...
  0 settings made for charge
Setting atom values ...
  0 settings made for charge
Setting atom values ...
  0 settings made for charge
Setting atom values ...
  0 settings made for charge
Setting atom values ...
  0 settings made for charge
Setting atom values ...
  0 settings made for charge
Setting atom values ...
  0 settings made for charge
Setting atom values ...
  0 settings made for charge
Setting atom values ...
  0 settings made for charge
Setting atom values ...
  0 settings made for charge
Setting atom values ...
  0 settings made for charge
Setting atom values ...
  0 settings made for charge
Setting atom values ...
  0 settings made for charge
Setting atom values ...
  0 settings made for charge
Setting atom values ...
  0 settings made for charge
Setting atom values ...
  0 settings made for charge
Setting atom values ...
  0 settings made for charge
Setting atom values ...
  0 settings made for charge
Setting atom values ...
  0 settings made for charge
Setting atom values ...
  0 settings made for charge
Setting atom values ...
  0 settings made for charge
Setting atom values ...
  0 settings made for charge
Setting atom values ...
  0 settings made for charge
Setting atom values ...
  0 settings made for charge
Setting atom values ...
  0 settings made for charge
Setting atom values ...
  0 settings made for charge
Setting atom values ...
  0 settings made for charge
Setting atom values ...
  0 settings made for charge
Setting atom values ...
  0 settings made for charge
Setting atom values ...
  0 settings made for charge
Setting atom values ...
  0 settings made for charge
Setting atom values ...
  0 settings made for charge
Setting atom values ...
  0 settings made for charge
Setting atom values ...
  0 settings made for charge
Setting atom values ...
  0 settings made for charge
Setting atom values ...
  0 settings made for charge
Setting atom values ...
  0 settings made for charge
Setting atom values ...
  0 settings made for charge
Setting atom values ...
  0 settings made for charge
Setting atom values ...
  0 settings made for charge
Setting atom values ...
  0 settings made for charge
Setting atom values ...
  0 settings made for charge
Setting atom values ...
  0 settings made for charge
Setting atom values ...
  0 settings made for charge
Setting atom values ...
  0 settings made for charge
Setting atom values ...
  0 settings made for charge
Setting atom values ...
  0 settings made for charge
Setting atom values ...
  0 settings made for charge
Setting atom values ...
  0 settings made for charge
Setting atom values ...
  0 settings made for charge
Setting atom values ...
  0 settings made for charge
Setting atom values ...
  0 settings made for charge
Setting atom values ...
  0 settings made for charge
Setting atom values ...
  0 settings made for charge
Setting atom values ...
  0 settings made for charge
Setting atom values ...
  0 settings made for charge
Setting atom values ...
  0 settings made for charge
Setting atom values ...
  0 settings made for charge
Setting atom values ...
  0 settings made for charge
Setting atom values ...
  0 settings made for charge
Setting atom values ...
  0 settings made for charge
Setting atom values ...
  0 settings made for charge
Setting atom values ...
  0 settings made for charge
Setting atom values ...
  0 settings made for charge
Setting atom values ...
  0 settings made for charge
Setting atom values ...
  0 settings made for charge
Setting atom values ...
  0 settings made for charge
Setting atom values ...
  0 settings made for charge
Setting atom values ...
  0 settings made for charge
Setting atom values ...
  0 settings made for charge
Setting atom values ...
  0 settings made for charge
Setting atom values ...
  0 settings made for charge
Setting atom values ...
  0 settings made for charge
Setting atom values ...
  0 settings made for charge
Setting atom values ...
  0 settings made for charge
Setting atom values ...
  0 settings made for charge
Setting atom values ...
  0 settings made for charge
Setting atom values ...
  0 settings made for charge
Setting atom values ...
  0 settings made for charge
Setting atom values ...
  0 settings made for charge
Setting atom values ...
  0 settings made for charge
Setting atom values ...
  0 settings made for charge
Setting atom values ...
  0 settings made for charge
Setting atom values ...
  0 settings made for charge
Setting atom values ...
  0 settings made for charge
Setting atom values ...
  0 settings made for charge
Setting atom values ...
  0 settings made for charge
Setting atom values ...
  0 settings made for charge
Setting atom values ...
  0 settings made for charge
Setting atom values ...
  0 settings made for charge
Setting atom values ...
  0 settings made for charge
Setting atom values ...
  0 settings made for charge
Setting atom values ...
  0 settings made for charge
Setting atom values ...
  0 settings made for charge
Setting atom values ...
  0 settings made for charge
Setting atom values ...
  0 settings made for charge
Setting atom values ...
  0 settings made for charge
Setting atom values ...
  0 settings made for charge
Setting atom values ...
  0 settings made for charge
Setting atom values ...
  0 settings made for charge
Setting atom values ...
  0 settings made for charge
Setting atom values ...
  0 settings made for charge
Setting atom values ...
  0 settings made for charge
Setting atom values ...
  0 settings made for charge
Setting atom values ...
  0 settings made for charge
Setting atom values ...
  0 settings made for charge
Setting atom values ...
  0 settings made for charge
Setting atom values ...
  0 settings made for charge
Setting atom values ...
  0 settings made for charge
Setting atom values ...
  0 settings made for charge
Setting atom values ...
  0 settings made for charge
Setting atom values ...
  0 settings made for charge
Setting atom values ...
  0 settings made for charge
Setting atom values ...
  0 settings made for charge
Setting atom values ...
  0 settings made for charge
Setting atom values ...
  0 settings made for charge
Setting atom values ...
  0 settings made for charge
Setting atom values ...
  0 settings made for charge
Setting atom values ...
  0 settings made for charge
Setting atom values ...
  0 settings made for charge
Setting atom values ...
  0 settings made for charge
Setting atom values ...
  0 settings made for charge
Setting atom values ...
  0 settings made for charge
Setting atom values ...
  0 settings made for charge
Setting atom values ...
  0 settings made for charge
Setting atom values ...
  0 settings made for charge
Setting atom values ...
  0 settings made for charge
Setting atom values ...
  0 settings made for charge
Setting atom values ...
  0 settings made for charge
Setting atom values ...
  0 settings made for charge
Setting atom values ...
  0 settings made for charge
Setting atom values ...
  0 settings made for charge
Setting atom values ...
  0 settings made for charge
Setting atom values ...
  0 settings made for charge
Setting atom values ...
  0 settings made for charge
Setting atom values ...
  0 settings made for charge
Setting atom values ...
  0 settings made for charge
Setting atom values ...
  0 settings made for charge
Setting atom values ...
  0 settings made for charge
Setting atom values ...
  0 settings made for charge
Setting atom values ...
  0 settings made for charge
Setting atom values ...
  0 settings made for charge
Setting atom values ...
  0 settings made for charge
Setting atom values ...
  0 settings made for charge
Setting atom values ...
  0 settings made for charge
Setting atom values ...
  0 settings made for charge
Setting atom values ...
  0 settings made for charge
Setting atom values ...
  0 settings made for charge
Setting atom values ...
  0 settings made for charge
Setting atom values ...
  0 settings made for charge
Setting atom values ...
  0 settings made for charge
Setting atom values ...
  0 settings made for charge
Setting atom values ...
  0 settings made for charge
Setting atom values ...
  0 settings made for charge
Setting atom values ...
  0 settings made for charge
Setting atom values ...
  0 settings made for charge
Setting atom values ...
  0 settings made for charge
Setting atom values ...
  0 settings made for charge
Setting atom values ...
  0 settings made for charge
Setting atom values ...
  0 settings made for charge
Setting atom values ...
  0 settings made for charge
Setting atom values ...
  0 settings made for charge
Setting atom values ...
  697 settings made for charge
Setting atom values ...
  0 settings made for charge
Setting atom values ...
  0 settings made for charge
Setting atom values ...
  0 settings made for charge
Setting atom values ...
  0 settings made for charge
Setting atom values ...
  122 settings made for charge
Setting atom values ...
  122 settings made for charge
Setting atom values ...
  244 settings made for charge
Setting atom values ...
  122 settings made for charge
Setting atom values ...
  0 settings made for charge
Setting atom values ...
  0 settings made for charge
Setting atom values ...
  0 settings made for charge
Setting atom values ...
  0 settings made for charge
Setting atom values ...
  0 settings made for charge
Setting atom values ...
  0 settings made for charge
Setting atom values ...
  0 settings made for charge
Setting atom values ...
  0 settings made for charge
Setting atom values ...
  0 settings made for charge
Setting atom values ...
  0 settings made for charge
Setting atom values ...
  0 settings made for charge
Setting atom values ...
  0 settings made for charge
Setting atom values ...
  0 settings made for charge
Setting atom values ...
  0 settings made for charge
Setting atom values ...
  0 settings made for charge
Setting atom values ...
  0 settings made for charge
Setting atom values ...
  0 settings made for charge
Setting atom values ...
  0 settings made for charge
Setting atom values ...
  0 settings made for charge
Setting atom values ...
  0 settings made for charge
Setting atom values ...
  0 settings made for charge
Setting atom values ...
  0 settings made for charge
Setting atom values ...
  0 settings made for charge
Setting atom values ...
  0 settings made for charge
Setting atom values ...
  0 settings made for charge
Setting atom values ...
  0 settings made for charge
Setting atom values ...
  0 settings made for charge
Setting atom values ...
  0 settings made for charge
Setting atom values ...
  0 settings made for charge
Setting atom values ...
  0 settings made for charge
Setting atom values ...
  0 settings made for charge
Setting atom values ...
  0 settings made for charge
Setting atom values ...
  0 settings made for charge
Setting atom values ...
  0 settings made for charge
Setting atom values ...
  0 settings made for charge
Setting atom values ...
  0 settings made for charge
Setting atom values ...
  0 settings made for charge
Setting atom values ...
  0 settings made for charge
Setting atom values ...
  0 settings made for charge
Setting atom values ...
  0 settings made for charge
Setting atom values ...
  0 settings made for charge
Setting atom values ...
  0 settings made for charge
Setting atom values ...
  0 settings made for charge
Setting atom values ...
  0 settings made for charge
Setting atom values ...
  0 settings made for charge
Setting atom values ...
  0 settings made for charge
Setting atom values ...
  0 settings made for charge
Setting atom values ...
  0 settings made for charge
Setting atom values ...
  0 settings made for charge
Setting atom values ...
  0 settings made for charge
Setting atom values ...
  0 settings made for charge
Setting atom values ...
  0 settings made for charge
Setting atom values ...
  0 settings made for charge
Setting atom values ...
  0 settings made for charge
Setting atom values ...
  0 settings made for charge
Setting atom values ...
  0 settings made for charge
Setting atom values ...
  0 settings made for charge
Setting atom values ...
  0 settings made for charge
Setting atom values ...
  0 settings made for charge
Setting atom values ...
  0 settings made for charge
Setting atom values ...
  0 settings made for charge
Setting atom values ...
  0 settings made for charge
Setting atom values ...
  0 settings made for charge
Setting atom values ...
  0 settings made for charge
Setting atom values ...
  0 settings made for charge
Setting atom values ...
  0 settings made for charge
Setting atom values ...
  0 settings made for charge
Setting atom values ...
  0 settings made for charge
Setting atom values ...
  0 settings made for charge
Setting atom values ...
  0 settings made for charge
Setting atom values ...
  0 settings made for charge
Setting atom values ...
  0 settings made for charge
Setting atom values ...
  0 settings made for charge
Setting atom values ...
  0 settings made for charge
Setting atom values ...
  0 settings made for charge
Setting atom values ...
  0 settings made for charge
Setting atom values ...
  0 settings made for charge
Setting atom values ...
  0 settings made for charge
Setting atom values ...
  0 settings made for charge
Setting atom values ...
  16 settings made for charge
Setting atom values ...
  16 settings made for charge
Setting atom values ...
  16 settings made for charge
Setting atom values ...
  16 settings made for charge
Setting atom values ...
  16 settings made for charge
Setting atom values ...
  8 settings made for charge
Setting atom values ...
  8 settings made for charge
Setting atom values ...
  8 settings made for charge
Setting atom values ...
  16 settings made for charge
Setting atom values ...
  8 settings made for charge
Setting atom values ...
  8 settings made for charge
Setting atom values ...
  0 settings made for charge
Setting atom values ...
  8 settings made for charge
Setting atom values ...
  8 settings made for charge
Setting atom values ...
  8 settings made for charge
Setting atom values ...
  0 settings made for charge
Setting atom values ...
  16 settings made for charge
Setting atom values ...
  0 settings made for charge
Setting atom values ...
  0 settings made for charge
Setting atom values ...
  0 settings made for charge
Setting atom values ...
  0 settings made for charge
Setting atom values ...
  0 settings made for charge
Setting atom values ...
  0 settings made for charge
Setting atom values ...
  0 settings made for charge
Setting atom values ...
  0 settings made for charge
Setting atom values ...
  0 settings made for charge
Setting atom values ...
  0 settings made for charge
Setting atom values ...
  0 settings made for charge
Setting atom values ...
  0 settings made for charge
Setting atom values ...
  0 settings made for charge
Setting atom values ...
  0 settings made for charge
Setting atom values ...
  0 settings made for charge
Setting atom values ...
  0 settings made for charge
Setting atom values ...
  0 settings made for charge
Setting atom values ...
  0 settings made for charge
Setting atom values ...
  0 settings made for charge
Setting atom values ...
  0 settings made for charge
Setting atom values ...
  0 settings made for charge
Setting atom values ...
  0 settings made for charge
Setting atom values ...
  0 settings made for charge
Setting atom values ...
  0 settings made for charge
Setting atom values ...
  0 settings made for charge
Setting atom values ...
  0 settings made for charge
Setting atom values ...
  0 settings made for charge
Setting atom values ...
  0 settings made for charge
Setting atom values ...
  0 settings made for charge
Setting atom values ...
  0 settings made for charge
Setting atom values ...
  0 settings made for charge
Setting atom values ...
  0 settings made for charge
Setting atom values ...
  0 settings made for charge
Setting atom values ...
  0 settings made for charge
Setting atom values ...
  0 settings made for charge
Setting atom values ...
  0 settings made for charge
Setting atom values ...
  0 settings made for charge
Setting atom values ...
  0 settings made for charge
Setting atom values ...
  0 settings made for charge
Setting atom values ...
  0 settings made for charge
Setting atom values ...
  0 settings made for charge
Setting atom values ...
  0 settings made for charge
Setting atom values ...
  0 settings made for charge
Setting atom values ...
  0 settings made for charge
Setting atom values ...
  0 settings made for charge
Setting atom values ...
  0 settings made for charge
Setting atom values ...
  0 settings made for charge
Setting atom values ...
  0 settings made for charge
Setting atom values ...
  0 settings made for charge
Setting atom values ...
  0 settings made for charge
Setting atom values ...
  0 settings made for charge
Setting atom values ...
  0 settings made for charge
Setting atom values ...
  0 settings made for charge
Setting atom values ...
  0 settings made for charge
Setting atom values ...
  0 settings made for charge
Setting atom values ...
  0 settings made for charge
Setting atom values ...
  0 settings made for charge
Setting atom values ...
  0 settings made for charge
Setting atom values ...
  0 settings made for charge
Setting atom values ...
  130 settings made for charge
Setting atom values ...
  0 settings made for charge
Setting atom values ...
  0 settings made for charge
Setting atom values ...
  0 settings made for charge
Setting atom values ...
  0 settings made for charge
Setting atom values ...
  0 settings made for charge
Setting atom values ...
  0 settings made for charge
Setting atom values ...
  0 settings made for charge
Setting atom values ...
  0 settings made for charge
Setting atom values ...
  0 settings made for charge
Setting atom values ...
  0 settings made for charge
Setting atom values ...
  122 settings made for charge
Setting atom values ...
  122 settings made for charge
Setting atom values ...
  0 settings made for charge
Setting atom values ...
  0 settings made for charge
Setting atom values ...
  0 settings made for charge
Setting atom values ...
  0 settings made for charge
Setting atom values ...
  115 settings made for charge
Setting atom values ...
  0 settings made for charge
Setting atom values ...
  0 settings made for charge
Setting atom values ...
  0 settings made for charge
Setting atom values ...
  0 settings made for charge
Setting atom values ...
  0 settings made for charge
Setting atom values ...
  0 settings made for charge
Setting atom values ...
  0 settings made for charge
Setting atom values ...
  0 settings made for charge
Setting atom values ...
  0 settings made for charge
Setting atom values ...
  0 settings made for charge
Setting atom values ...
  0 settings made for charge
Setting atom values ...
  0 settings made for charge
Setting atom values ...
  0 settings made for charge
Setting atom values ...
  0 settings made for charge
Setting atom values ...
  0 settings made for charge
Setting atom values ...
  0 settings made for charge
Setting atom values ...
  0 settings made for charge
Setting atom values ...
  0 settings made for charge
Setting atom values ...
  0 settings made for charge
Setting atom values ...
  0 settings made for charge
Setting atom values ...
  0 settings made for charge
Setting atom values ...
  0 settings made for charge
Setting atom values ...
  0 settings made for charge
Setting atom values ...
  0 settings made for charge
Setting atom values ...
  0 settings made for charge
Setting atom values ...
  0 settings made for charge
Setting atom values ...
  0 settings made for charge
Setting atom values ...
  0 settings made for charge
Setting atom values ...
  0 settings made for charge
Setting atom values ...
  0 settings made for charge
Setting atom values ...
  0 settings made for charge
Setting atom values ...
  0 settings made for charge
Setting atom values ...
  0 settings made for charge
Setting atom values ...
  0 settings made for charge
Setting atom values ...
  0 settings made for charge
Setting atom values ...
  0 settings made for charge
Setting atom values ...
  0 settings made for charge
Setting atom values ...
  0 settings made for charge
Setting atom values ...
  0 settings made for charge
Setting atom values ...
  0 settings made for charge
Setting atom values ...
  0 settings made for charge
Setting atom values ...
  0 settings made for charge
Setting atom values ...
  0 settings made for charge
Setting atom values ...
  0 settings made for charge
Setting atom values ...
  0 settings made for charge
Setting atom values ...
  0 settings made for charge
Setting atom values ...
  0 settings made for charge
Setting atom values ...
  0 settings made for charge
Setting atom values ...
  0 settings made for charge
Setting atom values ...
  0 settings made for charge
Setting atom values ...
  0 settings made for charge
Setting atom values ...
  0 settings made for charge
Setting atom values ...
  0 settings made for charge
Setting atom values ...
  0 settings made for charge
Setting atom values ...
  0 settings made for charge
Setting atom values ...
  0 settings made for charge
Setting atom values ...
  0 settings made for charge
Setting atom values ...
  0 settings made for charge
Setting atom values ...
  0 settings made for charge
Setting atom values ...
  0 settings made for charge
Setting atom values ...
  0 settings made for charge
Setting atom values ...
  0 settings made for charge
Setting atom values ...
  0 settings made for charge
Setting atom values ...
  0 settings made for charge
Setting atom values ...
  0 settings made for charge
Setting atom values ...
  0 settings made for charge
Setting atom values ...
  0 settings made for charge
Setting atom values ...
  0 settings made for charge
Setting atom values ...
  0 settings made for charge
Setting atom values ...
  0 settings made for charge
Setting atom values ...
  0 settings made for charge
Setting atom values ...
  0 settings made for charge
Setting atom values ...
  0 settings made for charge
Setting atom values ...
  0 settings made for charge
Setting atom values ...
  0 settings made for charge
Setting atom values ...
  0 settings made for charge
Setting atom values ...
  0 settings made for charge
Setting atom values ...
  0 settings made for charge
Setting atom values ...
  0 settings made for charge
Setting atom values ...
  0 settings made for charge
Setting atom values ...
  0 settings made for charge
Setting atom values ...
  0 settings made for charge
Setting atom values ...
  0 settings made for charge
Setting atom values ...
  0 settings made for charge
Setting atom values ...
  0 settings made for charge
Setting atom values ...
  0 settings made for charge
Setting atom values ...
  0 settings made for charge
Setting atom values ...
  0 settings made for charge
Setting atom values ...
  0 settings made for charge
Setting atom values ...
  0 settings made for charge
Setting atom values ...
  0 settings made for charge
Setting atom values ...
  0 settings made for charge
Setting atom values ...
  0 settings made for charge
Setting atom values ...
  115 settings made for charge
Setting atom values ...
  0 settings made for charge
Setting atom values ...
  0 settings made for charge
Setting atom values ...
  0 settings made for charge
Setting atom values ...
  0 settings made for charge
Setting atom values ...
  0 settings made for charge
Setting atom values ...
  115 settings made for charge
Setting atom values ...
  0 settings made for charge
Setting atom values ...
  0 settings made for charge
Setting atom values ...
  115 settings made for charge
Setting atom values ...
  0 settings made for charge
Setting atom values ...
  0 settings made for charge
Setting atom values ...
  0 settings made for charge
Setting atom values ...
  115 settings made for charge
Setting atom values ...
  0 settings made for charge
Setting atom values ...
  0 settings made for charge
Setting atom values ...
  0 settings made for charge
Setting atom values ...
  0 settings made for charge
Setting atom values ...
  0 settings made for charge
Setting atom values ...
  0 settings made for charge
Setting atom values ...
  0 settings made for charge
Setting atom values ...
  0 settings made for charge
Setting atom values ...
  0 settings made for charge
Setting atom values ...
  0 settings made for charge
Setting atom values ...
  0 settings made for charge
Setting atom values ...
  0 settings made for charge
Setting atom values ...
  0 settings made for charge
Setting atom values ...
  0 settings made for charge
Setting atom values ...
  0 settings made for charge
Setting atom values ...
  0 settings made for charge
Setting atom values ...
  0 settings made for charge
Setting atom values ...
  0 settings made for charge
Setting atom values ...
  0 settings made for charge
Setting atom values ...
  0 settings made for charge
Setting atom values ...
  0 settings made for charge
Setting atom values ...
  0 settings made for charge
Setting atom values ...
  0 settings made for charge
Setting atom values ...
  0 settings made for charge
Setting atom values ...
  0 settings made for charge
Setting atom values ...
  0 settings made for charge
Setting atom values ...
  0 settings made for charge
Setting atom values ...
  0 settings made for charge
Setting atom values ...
  0 settings made for charge
Setting atom values ...
  0 settings made for charge
Setting atom values ...
  0 settings made for charge
Setting atom values ...
  0 settings made for charge
Setting atom values ...
  0 settings made for charge
Setting atom values ...
  0 settings made for charge
Setting atom values ...
  0 settings made for charge
Setting atom values ...
  0 settings made for charge
Setting atom values ...
  0 settings made for charge
Setting atom values ...
  0 settings made for charge
Setting atom values ...
  0 settings made for charge
Setting atom values ...
  0 settings made for charge
Setting atom values ...
  0 settings made for charge
Setting atom values ...
  0 settings made for charge
Setting atom values ...
  0 settings made for charge
Setting atom values ...
  0 settings made for charge
Setting atom values ...
  0 settings made for charge
Setting atom values ...
  0 settings made for charge
Setting atom values ...
  0 settings made for charge
Setting atom values ...
  0 settings made for charge
Setting atom values ...
  0 settings made for charge
Setting atom values ...
  0 settings made for charge
Setting atom values ...
  0 settings made for charge
Setting atom values ...
  0 settings made for charge
Setting atom values ...
  0 settings made for charge
Setting atom values ...
  0 settings made for charge
Setting atom values ...
  0 settings made for charge
Setting atom values ...
  0 settings made for charge
Setting atom values ...
  0 settings made for charge
Setting atom values ...
  0 settings made for charge
Setting atom values ...
  0 settings made for charge
Setting atom values ...
  0 settings made for charge
Setting atom values ...
  0 settings made for charge
Setting atom values ...
  0 settings made for charge
Setting atom values ...
  0 settings made for charge
Setting atom values ...
  0 settings made for charge
Setting atom values ...
  0 settings made for charge
Setting atom values ...
  0 settings made for charge
Setting atom values ...
  0 settings made for charge
Setting atom values ...
  0 settings made for charge
Setting atom values ...
  0 settings made for charge
Setting atom values ...
  0 settings made for charge
Setting atom values ...
  0 settings made for charge
Setting atom values ...
  0 settings made for charge
Setting atom values ...
  0 settings made for charge
Setting atom values ...
  0 settings made for charge
Setting atom values ...
  0 settings made for charge
Setting atom values ...
  0 settings made for charge
Setting atom values ...
  0 settings made for charge
Setting atom values ...
  0 settings made for charge
Setting atom values ...
  0 settings made for charge
Setting atom values ...
  0 settings made for charge
Setting atom values ...
  0 settings made for charge
Setting atom values ...
  0 settings made for charge
Setting atom values ...
  0 settings made for charge
Setting atom values ...
  0 settings made for charge
Setting atom values ...
  0 settings made for charge
Setting atom values ...
  0 settings made for charge
Setting atom values ...
  0 settings made for charge
Setting atom values ...
  0 settings made for charge
Setting atom values ...
  0 settings made for charge
Setting atom values ...
  0 settings made for charge
Setting atom values ...
  0 settings made for charge
Setting atom values ...
  0 settings made for charge
Setting atom values ...
  0 settings made for charge
Setting atom values ...
  0 settings made for charge
Setting atom values ...
  0 settings made for charge
Setting atom values ...
  0 settings made for charge
Setting atom values ...
  0 settings made for charge
Setting atom values ...
  0 settings made for charge
Setting atom values ...
  0 settings made for charge
Setting atom values ...
  0 settings made for charge
Setting atom values ...
  0 settings made for charge
Setting atom values ...
  0 settings made for charge
Setting atom values ...
  0 settings made for charge
Setting atom values ...
  0 settings made for charge
Setting atom values ...
  0 settings made for charge
Setting atom values ...
  0 settings made for charge
Setting atom values ...
  0 settings made for charge
Setting atom values ...
  0 settings made for charge
Setting atom values ...
  0 settings made for charge
Setting atom values ...
  0 settings made for charge
Setting atom values ...
  0 settings made for charge
Setting atom values ...
  0 settings made for charge
Setting atom values ...
  0 settings made for charge
Setting atom values ...
  0 settings made for charge
Setting atom values ...
  0 settings made for charge
Setting atom values ...
  0 settings made for charge
Setting atom values ...
  0 settings made for charge
Setting atom values ...
  0 settings made for charge
Setting atom values ...
  0 settings made for charge
Setting atom values ...
  0 settings made for charge
Setting atom values ...
  0 settings made for charge
Setting atom values ...
  0 settings made for charge
Setting atom values ...
  0 settings made for charge
Setting atom values ...
  0 settings made for charge
Setting atom values ...
  0 settings made for charge
Setting atom values ...
  0 settings made for charge
Setting atom values ...
  0 settings made for charge
Setting atom values ...
  0 settings made for charge
Setting atom values ...
  0 settings made for charge
Setting atom values ...
  0 settings made for charge
Setting atom values ...
  0 settings made for charge
Setting atom values ...
  0 settings made for charge
Setting atom values ...
  0 settings made for charge
Setting atom values ...
  0 settings made for charge
Setting atom values ...
  0 settings made for charge
Setting atom values ...
  0 settings made for charge
Setting atom values ...
  0 settings made for charge
Setting atom values ...
  0 settings made for charge
Setting atom values ...
  0 settings made for charge
Setting atom values ...
  0 settings made for charge
Setting atom values ...
  0 settings made for charge
Setting atom values ...
  0 settings made for charge
Setting atom values ...
  0 settings made for charge
Setting atom values ...
  0 settings made for charge
Setting atom values ...
  0 settings made for charge
Setting atom values ...
  0 settings made for charge
Setting atom values ...
  0 settings made for charge
Setting atom values ...
  0 settings made for charge
Setting atom values ...
  0 settings made for charge
Setting atom values ...
  0 settings made for charge
Setting atom values ...
  0 settings made for charge
Setting atom values ...
  0 settings made for charge
Setting atom values ...
  0 settings made for charge
Setting atom values ...
  0 settings made for charge
Setting atom values ...
  0 settings made for charge
Setting atom values ...
  0 settings made for charge
Setting atom values ...
  0 settings made for charge
Setting atom values ...
  0 settings made for charge
Setting atom values ...
  0 settings made for charge
Setting atom values ...
  0 settings made for charge
Setting atom values ...
  0 settings made for charge
Setting atom values ...
  0 settings made for charge
Setting atom values ...
  122 settings made for charge
Setting atom values ...
  16 settings made for charge
  create bodies CPU = 0.0229079 secs
4729 rigid bodies with 18916 atoms
  0.941931 = max distance from body owner to body atom
WARNING: Temperature for thermo pressure is not for group all (../thermo.cpp:485)
PPPM initialization ...
  using 12-bit tables for long-range coulomb (../kspace.cpp:332)
  G vector (1/distance) = 0.228637
  grid = 36 48 48
  stencil order = 5
  estimated absolute RMS force accuracy = 0.0386228
  estimated relative force accuracy = 0.000116312
  using double precision KISS FFT
  3d grid and FFT values/proc = 10925 3456
WARNING: Neighbor exclusions used with KSpace solver may give inconsistent Coulombic energies (../neighbor.cpp:486)
Neighbor list info ...
  update every 1 steps, delay 0 steps, check yes
  max neighbors/atom: 2000, page size: 100000
  master list distance cutoff = 16
  ghost atom cutoff = 16
  binsize = 8, bins = 13 18 18
  1 neighbor lists, perpetual/occasional/extra = 1 0 0
  (1) pair lj/cut/coul/long, perpetual
      attributes: half, newton on
      pair build: half/bin/newton
      stencil: half/bin/3d/newton
      bin: standard
Setting up Verlet run ...
  Unit style    : real
  Current step  : 0
  Time step     : 0.1
Per MPI rank memory allocation (min/avg/max) = 16.8 | 26.36 | 65.52 Mbytes
Step Temp PotEng KinEng TotEng E_vdwl E_coul E_long E_pair Time 
       0    311.20696   -93689.619     8772.775   -84916.844    6808.6659    264678.86   -372488.72   -101001.19            0 
    1000    341.86952   -94548.533    9637.1379   -84911.395    11588.868    259069.81   -372518.78    -101860.1          100 
    2000          310   -95362.797    8738.7514   -86624.046    11394.381    258498.83   -372567.58   -102674.36          200 
    3000          310   -95735.865    8738.7514   -86997.114    11543.885    258052.85   -372644.16   -103047.43          300 
    4000          310   -95505.075    8738.7514   -86766.323    11155.099    258687.79   -372659.53   -102816.64          400 
    5000          310   -92436.849    8738.7514   -83698.097    13189.175    259707.59   -372645.18   -99748.416          500 
    6000          310   -88391.654    8738.7514   -79652.903    13420.529    263452.63   -372576.38   -95703.222          600 
    7000          310   -83515.979    8738.7514   -74777.228    14612.071    267050.16   -372489.78   -90827.547          700 
    8000          310   -76396.587    8738.7514   -67657.836    17868.908    270820.54    -372397.6   -83708.155          800 
    9000          310   -75429.064    8738.7514   -66690.312    14827.005       274782   -372349.64   -82740.631          900 
   10000          310    -74197.77    8738.7514   -65459.018    13133.088    277654.63   -372297.05   -81509.337         1000 
Loop time of 1143.48 on 24 procs for 10000 steps with 67474 atoms

Performance: 0.076 ns/day, 317.634 hours/ns, 8.745 timesteps/s
98.8% CPU use with 24 MPI tasks x no OpenMP threads

MPI task timing breakdown:
Section |  min time  |  avg time  |  max time  |%varavg| %total
---------------------------------------------------------------
Pair    | 0.040842   | 142.23     | 868.67     |2535.4 | 12.44
Bond    | 0.02635    | 1.0958     | 7.0846     | 222.5 |  0.10
Kspace  | 172.01     | 873.51     | 1012.8     | 983.6 | 76.39
Neigh   | 39.926     | 39.978     | 40.01      |   0.4 |  3.50
Comm    | 20.145     | 50.694     | 63.359     | 196.3 |  4.43
Output  | 0.66104    | 0.66807    | 0.68627    |   0.7 |  0.06
Modify  | 26.4       | 28.071     | 30.468     |  28.9 |  2.45
Other   |            | 7.239      |            |       |  0.63

Nlocal:    2811.42 ave 8467 max 243 min
Histogram: 8 1 4 7 0 0 0 0 0 4
Nghost:    12042.7 ave 26330 max 4687 min
Histogram: 8 0 4 8 0 0 0 0 0 4
Neighs:    922126 ave 5.87319e+06 max 0 min
Histogram: 20 0 0 0 0 0 0 1 1 2

Total # of neighbors = 22131027
Ave neighs/atom = 327.993
Ave special neighs/atom = 0.841035
Neighbor list builds = 88
Dangerous builds = 0
Total wall time: 0:19:05

real	19m8.821s
user	226m22.441s
sys	0m59.728s
