ITEM: TIMESTEP
1000
ITEM: NUMBER OF ATOMS
258
ITEM: BOX BOUNDS pp pp pp
0.0000000000000000e+00 1.0000000000000000e+02
0.0000000000000000e+00 1.0000000000000000e+02
0.0000000000000000e+00 1.0000000000000000e+02
ITEM: ATOMS id mol type x y z ix iy iz 
182 1 85 55.7439 48.819 48.415 0 0 0 
233 1 85 55.9374 48.1373 46.1164 0 0 0 
42 1 82 56.2774 49.7686 48.3304 0 0 0 
43 1 81 57.6797 49.564 48.9084 0 0 0 
119 1 80 56.6224 48.9679 45.9457 0 0 0 
184 1 85 58.2927 48.9335 48.2653 0 0 0 
234 1 85 57.6338 48.6148 46.1461 0 0 0 
235 1 85 56.5728 49.2371 44.8909 0 0 0 
37 1 81 55.1688 49.3333 53.2326 0 0 0 
176 1 85 55.1895 49.2835 54.3186 0 0 0 
177 1 85 54.585 48.4926 52.8631 0 0 0 
38 1 81 56.5702 49.318 52.665 0 0 0 
39 1 86 56.5305 49.6036 51.189 0 0 0 
44 1 81 57.5693 48.9363 50.2961 0 0 0 
178 1 85 57.0443 48.3555 52.8354 0 0 0 
185 1 85 58.536 48.986 50.8051 0 0 0 
186 1 85 57.3289 47.8757 50.2181 0 0 0 
2 1 81 49.8189 51.8958 47.3596 0 0 0 
3 1 82 48.451 52.2033 48.0043 0 0 0 
4 1 82 48.4224 53.6794 48.4371 0 0 0 
5 1 81 48.664 54.5971 47.2143 0 0 0 
6 1 122 49.1973 53.8844 46.1025 0 0 0 
7 1 82 49.4426 53.9396 49.5696 0 0 0 
10 1 81 48.1015 51.2474 49.1713 0 0 0 
150 1 85 49.7493 50.9713 46.789 0 0 0 
152 1 85 47.703 52.0859 47.219 0 0 0 
153 1 85 47.4359 53.897 48.8455 0 0 0 
154 1 85 49.3364 55.4162 47.4763 0 0 0 
155 1 85 47.726 55.04 46.8833 0 0 0 
160 1 85 47.0717 50.9048 49.0789 0 0 0 
161 1 85 48.7307 50.3592 49.1083 0 0 0 
164 1 85 49.1633 56.089 49.6184 0 0 0 
1 1 81 50.2975 53.0626 46.4643 0 0 0 
41 1 81 55.5261 50.7896 49.2037 0 0 0 
148 1 85 50.7601 52.6961 45.5509 0 0 0 
149 1 85 51.0464 53.6663 46.9847 0 0 0 
151 1 85 50.5675 51.7129 48.1332 0 0 0 
156 1 85 50.4059 54.0744 49.0784 0 0 0 
180 1 85 54.4773 50.7673 48.8965 0 0 0 
181 1 85 55.8769 51.8017 49.0051 0 0 0 
229 1 85 55.2499 50.4704 46.5936 0 0 0 
117 1 82 56.2704 50.1658 46.8391 0 0 0 
118 1 80 57.1988 51.3515 46.5301 0 0 0 
183 1 85 58.1887 50.5276 48.9876 0 0 0 
230 1 85 57.0787 51.6815 45.4994 0 0 0 
231 1 85 58.2443 51.0779 46.6715 0 0 0 
232 1 85 56.997 52.2103 47.172 0 0 0 
195 1 85 67.7477 55.1497 49.9066 0 0 0 
197 1 85 70.0799 55.4728 49.1536 0 0 0 
168 1 85 52.282 58.9801 49.6785 0 0 0 
191 1 85 68.0133 59.004 49.0548 0 0 0 
192 1 85 66.7256 57.1461 49.137 0 0 0 
76 1 81 69.4663 56.3612 49.2916 0 0 0 
77 1 82 70.3094 57.4904 49.9045 0 0 0 
81 1 81 72.1695 58.9886 49.4777 0 0 0 
82 1 731 71.1897 58.0698 48.8889 0 0 0 
196 1 85 69.1058 56.6547 48.3032 0 0 0 
200 1 85 69.8478 60.3894 49.5862 0 0 0 
204 1 85 73.0312 58.4168 49.8193 0 0 0 
205 1 85 72.5293 59.6402 48.6816 0 0 0 
206 1 740 70.6203 58.5591 48.2075 0 0 0 
225 1 85 71.5643 61.5723 48.4908 0 0 0 
227 1 85 69.2668 61.9837 48.0694 0 0 0 
210 1 85 56.1779 63.3178 48.2429 0 0 0 
213 1 85 55.4231 65.8327 49.3158 0 0 0 
90 1 81 57.0619 63.7473 48.7126 0 0 0 
91 1 81 57.2201 65.2301 48.3117 0 0 0 
92 1 81 56.4699 66.1416 49.295 0 0 0 
209 1 85 57.9148 63.179 48.335 0 0 0 
211 1 85 56.8745 65.3809 47.2904 0 0 0 
212 1 85 58.2804 65.4973 48.3246 0 0 0 
214 1 85 56.4837 67.1764 48.9557 0 0 0 
100 1 90 68.0618 63.4218 49.9892 0 0 0 
104 1 92 68.0211 65.884 49.9873 0 0 0 
105 1 82 69.5507 63.3794 49.7104 0 0 0 
106 1 82 70.2827 64.7097 49.9865 0 0 0 
107 1 90 69.4292 65.9625 49.9199 0 0 0 
108 1 82 71.5034 64.901 49.085 0 0 0 
109 1 81 72.2491 63.5722 48.9246 0 0 0 
110 1 81 71.3638 62.5792 48.1402 0 0 0 
111 1 81 69.856 62.8719 48.2933 0 0 0 
112 1 92 70.0823 67.2195 49.8966 0 0 0 
115 1 90 72.2599 66.1327 49.5356 0 0 0 
116 1 92 71.5003 67.2906 49.8165 0 0 0 
134 1 92 73.5824 68.5778 49.9973 0 0 0 
135 1 92 72.1626 68.5278 49.9864 0 0 0 
139 1 90 73.66 66.1748 49.5807 0 0 0 
140 1 92 74.3338 67.3865 49.8524 0 0 0 
222 1 85 71.1307 65.1749 48.0929 0 0 0 
223 1 85 72.4733 63.1867 49.9213 0 0 0 
224 1 85 73.1958 63.6984 48.4057 0 0 0 
226 1 85 71.6286 62.5937 47.0835 0 0 0 
228 1 85 69.5354 63.6304 47.5763 0 0 0 
244 1 91 74.2076 65.2728 49.3646 0 0 0 
142 1 90 75.7462 67.4235 49.924 0 0 0 
143 1 81 76.5297 66.1102 49.9224 0 0 0 
145 1 81 78.6839 67.335 49.8903 0 0 0 
146 1 222 77.9451 68.6629 49.8522 0 0 0 
246 1 85 76.6453 65.7625 48.8945 0 0 0 
249 1 85 78.8587 67.0545 48.8523 0 0 0 
147 1 223 78.6272 69.6595 49.6179 0 0 0 
8 1 82 49.5508 52.7453 50.5727 0 0 0 
9 1 81 48.2863 51.8988 50.5543 0 0 0 
11 1 122 49.7756 53.157 51.9202 0 0 0 
14 1 81 49.1257 55.2471 50.3058 0 0 0 
158 1 85 47.4441 52.5516 50.7884 0 0 0 
159 1 85 48.3334 51.1465 51.3392 0 0 0 
163 1 85 49.3187 55.7942 52.3435 0 0 0 
165 1 85 48.0961 55.1624 50.649 0 0 0 
12 1 82 50.6943 54.2368 52.0574 0 0 0 
13 1 82 50.0012 55.4998 51.5479 0 0 0 
17 1 90 52.948 55.1619 51.1958 0 0 0 
18 1 82 52.032 53.9539 51.3558 0 0 0 
19 1 92 54.3575 54.9762 51.0726 0 0 0 
20 1 92 55.2058 56.1061 50.9366 0 0 0 
30 1 86 52.8371 52.8322 51.9524 0 0 0 
31 1 82 54.041 52.4149 51.1532 0 0 0 
32 1 90 54.9296 53.6704 51.1118 0 0 0 
33 1 86 54.7262 51.1087 51.5752 0 0 0 
34 1 86 54.4558 50.5808 52.8086 0 0 0 
35 1 81 53.4084 51.1669 53.7407 0 0 0 
36 1 86 52.5374 52.2306 53.1212 0 0 0 
40 1 86 55.5958 50.4844 50.7096 0 0 0 
157 1 85 50.382 52.0955 50.2857 0 0 0 
162 1 85 50.9061 54.3895 53.1127 0 0 0 
166 1 85 51.8876 53.6284 50.3352 0 0 0 
172 1 85 53.6718 52.3057 50.1354 0 0 0 
173 1 85 53.8683 51.5406 54.6554 0 0 0 
174 1 85 52.7691 50.3353 54.0559 0 0 0 
175 1 85 51.6499 52.4804 53.6865 0 0 0 
29 1 92 56.6211 55.979 50.8816 0 0 0 
45 1 90 57.16 54.6764 50.9523 0 0 0 
46 1 90 56.3298 53.5533 51.0601 0 0 0 
48 1 90 59.6127 55.987 50.8346 0 0 0 
49 1 144 58.8805 54.3962 50.8937 0 0 0 
50 1 90 61.0079 56.0216 50.8251 0 0 0 
179 1 85 57.1896 50.0835 53.1385 0 0 0 
187 1 91 56.8025 52.5884 51.0982 0 0 0 
188 1 91 61.5466 55.0852 50.8533 0 0 0 
75 1 81 68.2502 56.0753 50.1856 0 0 0 
120 1 96 65.6908 55.9649 51.3794 0 0 0 
194 1 85 68.5684 55.9561 51.2234 0 0 0 
236 1 97 65.1121 55.9969 52.1246 0 0 0 
171 1 89 49.5043 58.0837 51.9408 0 0 0 
15 1 86 50.9597 56.6722 51.4367 0 0 0 
16 1 90 52.3713 56.4576 51.1491 0 0 0 
21 1 92 54.6263 57.3882 50.8395 0 0 0 
22 1 90 53.2316 57.5552 50.9128 0 0 0 
23 1 81 52.6145 58.9305 50.7172 0 0 0 
24 1 81 51.4177 59.1666 51.6375 0 0 0 
25 1 87 50.5397 57.9331 51.6787 0 0 0 
26 1 119 55.3858 58.5065 50.6409 0 0 0 
167 1 85 53.3513 59.7245 50.8422 0 0 0 
169 1 85 50.8501 60.0369 51.3117 0 0 0 
170 1 85 51.7633 59.3588 52.6537 0 0 0 
27 1 92 56.7492 58.3875 50.7011 0 0 0 
28 1 92 57.4241 57.1534 50.7867 0 0 0 
47 1 92 58.8527 57.1851 50.7858 0 0 0 
51 1 92 61.6848 57.2497 50.7862 0 0 0 
52 1 92 60.9736 58.4677 50.7448 0 0 0 
53 1 92 59.5518 58.4447 50.7359 0 0 0 
54 1 92 61.6938 59.6925 50.6894 0 0 0 
62 1 92 58.8509 59.683 50.6781 0 0 0 
63 1 90 57.4419 59.5921 50.6479 0 0 0 
64 1 92 60.9864 60.9233 50.6366 0 0 0 
65 1 92 59.5568 60.9414 50.6466 0 0 0 
67 1 92 61.7241 62.1428 50.5704 0 0 0 
83 1 90 58.908 62.2212 50.6308 0 0 0 
89 1 119 57.5409 62.3393 50.6466 0 0 0 
190 1 91 56.7749 60.4206 50.5791 0 0 0 
251 2 65 60.0158 60.0058 55.0043 0 0 0 
252 2 67 59.9912 59.8797 54.9297 0 0 0 
253 2 66 59.8785 59.8745 54.0577 0 0 0 
254 2 66 59.8124 59.162 55.3908 0 0 0 
55 1 92 63.1235 59.6781 50.6942 0 0 0 
56 1 92 63.8242 58.4398 50.7961 0 0 0 
57 1 90 63.0833 57.2415 50.7932 0 0 0 
58 1 90 65.2415 58.446 50.8991 0 0 0 
59 1 90 65.938 59.6566 50.7386 0 0 0 
60 1 92 65.2739 60.9002 50.5465 0 0 0 
61 1 92 63.8488 60.9033 50.5899 0 0 0 
66 1 92 63.1433 62.1329 50.5253 0 0 0 
68 1 92 65.9728 62.1365 50.3454 0 0 0 
71 1 119 67.297 59.5659 50.9038 0 0 0 
72 1 82 67.9827 58.622 50.078 0 0 0 
73 1 82 67.2595 57.249 50.0855 0 0 0 
74 1 100 66.1931 57.2694 51.1823 0 0 0 
101 1 90 67.3694 62.2137 50.1314 0 0 0 
189 1 91 63.5545 56.2794 50.7616 0 0 0 
193 1 85 66.7102 57.5272 52.1147 0 0 0 
219 1 91 67.9781 61.3489 50.0311 0 0 0 
78 1 82 69.429 58.5641 50.6124 0 0 0 
79 1 81 70.0899 59.9459 50.55 0 0 0 
80 1 81 71.6087 59.829 50.6513 0 0 0 
198 1 85 70.9563 57.0473 50.6615 0 0 0 
199 1 85 69.351 58.2772 51.6661 0 0 0 
201 1 85 69.6775 60.6009 51.3172 0 0 0 
202 1 85 71.8565 59.3618 51.6053 0 0 0 
203 1 85 72.0594 60.8225 50.6678 0 0 0 
208 1 85 55.9077 63.4957 50.541 0 0 0 
84 1 90 59.6502 63.4242 50.6232 0 0 0 
85 1 92 61.0481 63.3864 50.5541 0 0 0 
86 1 119 59.0272 64.6529 50.6668 0 0 0 
87 1 82 57.6539 64.6565 51.0297 0 0 0 
88 1 82 56.956 63.5549 50.2441 0 0 0 
93 1 81 57.0726 66.0435 50.715 0 0 0 
95 1 90 61.7577 64.6032 50.4839 0 0 0 
207 1 85 57.5818 64.4372 52.0962 0 0 0 
215 1 85 56.3127 66.2916 51.4559 0 0 0 
216 1 85 57.8772 66.7683 50.8349 0 0 0 
217 1 91 61.2231 65.5436 50.4752 0 0 0 
69 1 92 65.2639 63.3628 50.325 0 0 0 
70 1 92 63.8522 63.3622 50.4278 0 0 0 
94 1 92 63.1576 64.5975 50.4105 0 0 0 
96 1 92 65.9577 64.5996 50.1993 0 0 0 
97 1 92 65.2546 65.8239 50.2135 0 0 0 
98 1 90 63.8572 65.8193 50.3166 0 0 0 
99 1 92 67.3602 64.6368 50.0561 0 0 0 
102 1 119 65.8816 67.0442 50.1047 0 0 0 
103 1 92 67.2573 67.0752 50.0394 0 0 0 
114 1 92 67.9027 68.336 50.0639 0 0 0 
218 1 91 63.3393 66.7687 50.3107 0 0 0 
255 3 65 64.0195 63.997 55.0159 0 0 0 
256 3 67 64.0024 63.863 54.9543 0 0 0 
257 3 66 63.9517 63.7132 54.0933 0 0 0 
258 3 66 63.809 63.2163 55.5132 0 0 0 
113 1 92 69.3188 68.4032 50.0143 0 0 0 
220 1 85 69.9776 62.6447 50.3953 0 0 0 
221 1 85 70.6447 64.6702 51.0185 0 0 0 
141 1 90 76.432 68.6696 50.0043 0 0 0 
144 1 81 77.8917 66.2374 50.5958 0 0 0 
245 1 85 75.9622 65.3482 50.458 0 0 0 
247 1 85 78.4273 65.2882 50.5501 0 0 0 
248 1 85 77.7577 66.482 51.6518 0 0 0 
250 1 85 79.6525 67.5131 50.3535 0 0 0 
121 1 90 67.1522 69.5337 50.1649 0 0 0 
122 1 90 67.8055 70.7791 50.248 0 0 0 
237 1 91 66.069 69.502 50.1953 0 0 0 
238 1 91 67.2125 71.6798 50.3343 0 0 0 
123 1 90 69.218 70.8444 50.2428 0 0 0 
124 1 92 69.9787 69.6549 50.1174 0 0 0 
125 1 92 71.3975 69.7097 50.1297 0 0 0 
126 1 92 72.0549 70.9541 50.2762 0 0 0 
127 1 92 71.2915 72.1434 50.4004 0 0 0 
128 1 90 69.8803 72.0833 50.3774 0 0 0 
129 1 90 71.9487 73.3849 50.5493 0 0 0 
130 1 90 73.3541 73.4419 50.5799 0 0 0 
131 1 92 74.1151 72.2602 50.4533 0 0 0 
132 1 92 73.4744 71.0074 50.296 0 0 0 
133 1 92 74.2461 69.8194 50.1587 0 0 0 
239 1 91 69.3003 72.9892 50.4763 0 0 0 
240 1 91 71.3754 74.2972 50.644 0 0 0 
241 1 91 73.8469 74.3973 50.6989 0 0 0 
136 1 92 75.6701 69.8746 50.1592 0 0 0 
137 1 90 76.2732 71.148 50.3362 0 0 0 
138 1 90 75.5182 72.3183 50.4841 0 0 0 
242 1 91 77.3382 71.2764 50.38 0 0 0 
243 1 91 76.0317 73.2594 50.6217 0 0 0 
ITEM: TIMESTEP
2000
ITEM: NUMBER OF ATOMS
258
ITEM: BOX BOUNDS pp pp pp
0.0000000000000000e+00 1.0000000000000000e+02
0.0000000000000000e+00 1.0000000000000000e+02
0.0000000000000000e+00 1.0000000000000000e+02
ITEM: ATOMS id mol type x y z ix iy iz 
182 1 85 55.7439 48.819 48.415 0 0 0 
233 1 85 55.9374 48.1373 46.1164 0 0 0 
42 1 82 56.2774 49.7686 48.3304 0 0 0 
43 1 81 57.6797 49.564 48.9084 0 0 0 
119 1 80 56.6224 48.9679 45.9457 0 0 0 
184 1 85 58.2927 48.9335 48.2653 0 0 0 
234 1 85 57.6338 48.6148 46.1461 0 0 0 
235 1 85 56.5728 49.2371 44.8909 0 0 0 
37 1 81 55.1688 49.3333 53.2326 0 0 0 
176 1 85 55.1895 49.2835 54.3186 0 0 0 
177 1 85 54.585 48.4926 52.8631 0 0 0 
38 1 81 56.5702 49.318 52.665 0 0 0 
39 1 86 56.5305 49.6036 51.189 0 0 0 
44 1 81 57.5693 48.9363 50.2961 0 0 0 
178 1 85 57.0443 48.3555 52.8354 0 0 0 
185 1 85 58.536 48.986 50.8051 0 0 0 
186 1 85 57.3289 47.8757 50.2181 0 0 0 
2 1 81 49.8189 51.8958 47.3596 0 0 0 
3 1 82 48.451 52.2033 48.0043 0 0 0 
4 1 82 48.4224 53.6794 48.4371 0 0 0 
5 1 81 48.664 54.5971 47.2143 0 0 0 
6 1 122 49.1973 53.8844 46.1025 0 0 0 
7 1 82 49.4426 53.9396 49.5696 0 0 0 
10 1 81 48.1015 51.2474 49.1713 0 0 0 
150 1 85 49.7493 50.9713 46.789 0 0 0 
152 1 85 47.703 52.0859 47.219 0 0 0 
153 1 85 47.4359 53.897 48.8455 0 0 0 
154 1 85 49.3364 55.4162 47.4763 0 0 0 
155 1 85 47.726 55.04 46.8833 0 0 0 
160 1 85 47.0717 50.9048 49.0789 0 0 0 
161 1 85 48.7307 50.3592 49.1083 0 0 0 
164 1 85 49.1633 56.089 49.6184 0 0 0 
1 1 81 50.2975 53.0626 46.4643 0 0 0 
41 1 81 55.5261 50.7896 49.2037 0 0 0 
148 1 85 50.7601 52.6961 45.5509 0 0 0 
149 1 85 51.0464 53.6663 46.9847 0 0 0 
151 1 85 50.5675 51.7129 48.1332 0 0 0 
156 1 85 50.4059 54.0744 49.0784 0 0 0 
180 1 85 54.4773 50.7673 48.8965 0 0 0 
181 1 85 55.8769 51.8017 49.0051 0 0 0 
229 1 85 55.2499 50.4704 46.5936 0 0 0 
117 1 82 56.2704 50.1658 46.8391 0 0 0 
118 1 80 57.1988 51.3515 46.5301 0 0 0 
183 1 85 58.1887 50.5276 48.9876 0 0 0 
230 1 85 57.0787 51.6815 45.4994 0 0 0 
231 1 85 58.2443 51.0779 46.6715 0 0 0 
232 1 85 56.997 52.2103 47.172 0 0 0 
195 1 85 67.7477 55.1497 49.9066 0 0 0 
197 1 85 70.0799 55.4728 49.1536 0 0 0 
168 1 85 52.282 58.9801 49.6785 0 0 0 
191 1 85 68.0133 59.004 49.0548 0 0 0 
192 1 85 66.7256 57.1461 49.137 0 0 0 
76 1 81 69.4663 56.3612 49.2916 0 0 0 
77 1 82 70.3094 57.4904 49.9045 0 0 0 
81 1 81 72.1695 58.9886 49.4777 0 0 0 
82 1 731 71.1897 58.0698 48.8889 0 0 0 
196 1 85 69.1058 56.6547 48.3032 0 0 0 
200 1 85 69.8478 60.3894 49.5862 0 0 0 
204 1 85 73.0312 58.4168 49.8193 0 0 0 
205 1 85 72.5293 59.6402 48.6816 0 0 0 
206 1 740 70.6203 58.5591 48.2075 0 0 0 
225 1 85 71.5643 61.5723 48.4908 0 0 0 
227 1 85 69.2668 61.9837 48.0694 0 0 0 
210 1 85 56.1779 63.3178 48.2429 0 0 0 
213 1 85 55.4231 65.8327 49.3158 0 0 0 
90 1 81 57.0619 63.7473 48.7126 0 0 0 
91 1 81 57.2201 65.2301 48.3117 0 0 0 
92 1 81 56.4699 66.1416 49.295 0 0 0 
209 1 85 57.9148 63.179 48.335 0 0 0 
211 1 85 56.8745 65.3809 47.2904 0 0 0 
212 1 85 58.2804 65.4973 48.3246 0 0 0 
214 1 85 56.4837 67.1764 48.9557 0 0 0 
100 1 90 68.0618 63.4218 49.9892 0 0 0 
104 1 92 68.0211 65.884 49.9873 0 0 0 
105 1 82 69.5507 63.3794 49.7104 0 0 0 
106 1 82 70.2827 64.7097 49.9865 0 0 0 
107 1 90 69.4292 65.9625 49.9199 0 0 0 
108 1 82 71.5034 64.901 49.085 0 0 0 
109 1 81 72.2491 63.5722 48.9246 0 0 0 
110 1 81 71.3638 62.5792 48.1402 0 0 0 
111 1 81 69.856 62.8719 48.2933 0 0 0 
112 1 92 70.0823 67.2195 49.8966 0 0 0 
115 1 90 72.2599 66.1327 49.5356 0 0 0 
116 1 92 71.5003 67.2906 49.8165 0 0 0 
134 1 92 73.5824 68.5778 49.9973 0 0 0 
135 1 92 72.1626 68.5278 49.9864 0 0 0 
139 1 90 73.66 66.1748 49.5807 0 0 0 
140 1 92 74.3338 67.3865 49.8524 0 0 0 
222 1 85 71.1307 65.1749 48.0929 0 0 0 
223 1 85 72.4733 63.1867 49.9213 0 0 0 
224 1 85 73.1958 63.6984 48.4057 0 0 0 
226 1 85 71.6286 62.5937 47.0835 0 0 0 
228 1 85 69.5354 63.6304 47.5763 0 0 0 
244 1 91 74.2076 65.2728 49.3646 0 0 0 
142 1 90 75.7462 67.4235 49.924 0 0 0 
143 1 81 76.5297 66.1102 49.9224 0 0 0 
145 1 81 78.6839 67.335 49.8903 0 0 0 
146 1 222 77.9451 68.6629 49.8522 0 0 0 
246 1 85 76.6453 65.7625 48.8945 0 0 0 
249 1 85 78.8587 67.0545 48.8523 0 0 0 
147 1 223 78.6272 69.6595 49.6179 0 0 0 
8 1 82 49.5508 52.7453 50.5727 0 0 0 
9 1 81 48.2863 51.8988 50.5543 0 0 0 
11 1 122 49.7756 53.157 51.9202 0 0 0 
14 1 81 49.1257 55.2471 50.3058 0 0 0 
158 1 85 47.4441 52.5516 50.7884 0 0 0 
159 1 85 48.3334 51.1465 51.3392 0 0 0 
163 1 85 49.3187 55.7942 52.3435 0 0 0 
165 1 85 48.0961 55.1624 50.649 0 0 0 
12 1 82 50.6943 54.2368 52.0574 0 0 0 
13 1 82 50.0012 55.4998 51.5479 0 0 0 
17 1 90 52.948 55.1619 51.1958 0 0 0 
18 1 82 52.032 53.9539 51.3558 0 0 0 
19 1 92 54.3575 54.9762 51.0726 0 0 0 
20 1 92 55.2058 56.1061 50.9366 0 0 0 
30 1 86 52.8371 52.8322 51.9524 0 0 0 
31 1 82 54.041 52.4149 51.1532 0 0 0 
32 1 90 54.9296 53.6704 51.1118 0 0 0 
33 1 86 54.7262 51.1087 51.5752 0 0 0 
34 1 86 54.4558 50.5808 52.8086 0 0 0 
35 1 81 53.4084 51.1669 53.7407 0 0 0 
36 1 86 52.5374 52.2306 53.1212 0 0 0 
40 1 86 55.5958 50.4844 50.7096 0 0 0 
157 1 85 50.382 52.0955 50.2857 0 0 0 
162 1 85 50.9061 54.3895 53.1127 0 0 0 
166 1 85 51.8876 53.6284 50.3352 0 0 0 
172 1 85 53.6718 52.3057 50.1354 0 0 0 
173 1 85 53.8683 51.5406 54.6554 0 0 0 
174 1 85 52.7691 50.3353 54.0559 0 0 0 
175 1 85 51.6499 52.4804 53.6865 0 0 0 
29 1 92 56.6211 55.979 50.8816 0 0 0 
45 1 90 57.16 54.6764 50.9523 0 0 0 
46 1 90 56.3298 53.5533 51.0601 0 0 0 
48 1 90 59.6127 55.987 50.8346 0 0 0 
49 1 144 58.8805 54.3962 50.8937 0 0 0 
50 1 90 61.0079 56.0216 50.8251 0 0 0 
179 1 85 57.1896 50.0835 53.1385 0 0 0 
187 1 91 56.8025 52.5884 51.0982 0 0 0 
188 1 91 61.5466 55.0852 50.8533 0 0 0 
75 1 81 68.2502 56.0753 50.1856 0 0 0 
120 1 96 65.6908 55.9649 51.3794 0 0 0 
194 1 85 68.5684 55.9561 51.2234 0 0 0 
236 1 97 65.1121 55.9969 52.1246 0 0 0 
171 1 89 49.5043 58.0837 51.9408 0 0 0 
15 1 86 50.9597 56.6722 51.4367 0 0 0 
16 1 90 52.3713 56.4576 51.1491 0 0 0 
21 1 92 54.6263 57.3882 50.8395 0 0 0 
22 1 90 53.2316 57.5552 50.9128 0 0 0 
23 1 81 52.6145 58.9305 50.7172 0 0 0 
24 1 81 51.4177 59.1666 51.6375 0 0 0 
25 1 87 50.5397 57.9331 51.6787 0 0 0 
26 1 119 55.3858 58.5065 50.6409 0 0 0 
167 1 85 53.3513 59.7245 50.8422 0 0 0 
169 1 85 50.8501 60.0369 51.3117 0 0 0 
170 1 85 51.7633 59.3588 52.6537 0 0 0 
27 1 92 56.7492 58.3875 50.7011 0 0 0 
28 1 92 57.4241 57.1534 50.7867 0 0 0 
47 1 92 58.8527 57.1851 50.7858 0 0 0 
51 1 92 61.6848 57.2497 50.7862 0 0 0 
52 1 92 60.9736 58.4677 50.7448 0 0 0 
53 1 92 59.5518 58.4447 50.7359 0 0 0 
54 1 92 61.6938 59.6925 50.6894 0 0 0 
62 1 92 58.8509 59.683 50.6781 0 0 0 
63 1 90 57.4419 59.5921 50.6479 0 0 0 
64 1 92 60.9864 60.9233 50.6366 0 0 0 
65 1 92 59.5568 60.9414 50.6466 0 0 0 
67 1 92 61.7241 62.1428 50.5704 0 0 0 
83 1 90 58.908 62.2212 50.6308 0 0 0 
89 1 119 57.5409 62.3393 50.6466 0 0 0 
190 1 91 56.7749 60.4206 50.5791 0 0 0 
251 2 65 60.0139 59.9978 54.9653 0 0 0 
252 2 67 59.9845 59.9141 54.8461 0 0 0 
253 2 66 59.9323 60.2622 54.0403 0 0 0 
254 2 66 59.718 59.095 54.9788 0 0 0 
55 1 92 63.1235 59.6781 50.6942 0 0 0 
56 1 92 63.8242 58.4398 50.7961 0 0 0 
57 1 90 63.0833 57.2415 50.7932 0 0 0 
58 1 90 65.2415 58.446 50.8991 0 0 0 
59 1 90 65.938 59.6566 50.7386 0 0 0 
60 1 92 65.2739 60.9002 50.5465 0 0 0 
61 1 92 63.8488 60.9033 50.5899 0 0 0 
66 1 92 63.1433 62.1329 50.5253 0 0 0 
68 1 92 65.9728 62.1365 50.3454 0 0 0 
71 1 119 67.297 59.5659 50.9038 0 0 0 
72 1 82 67.9827 58.622 50.078 0 0 0 
73 1 82 67.2595 57.249 50.0855 0 0 0 
74 1 100 66.1931 57.2694 51.1823 0 0 0 
101 1 90 67.3694 62.2137 50.1314 0 0 0 
189 1 91 63.5545 56.2794 50.7616 0 0 0 
193 1 85 66.7102 57.5272 52.1147 0 0 0 
219 1 91 67.9781 61.3489 50.0311 0 0 0 
78 1 82 69.429 58.5641 50.6124 0 0 0 
79 1 81 70.0899 59.9459 50.55 0 0 0 
80 1 81 71.6087 59.829 50.6513 0 0 0 
198 1 85 70.9563 57.0473 50.6615 0 0 0 
199 1 85 69.351 58.2772 51.6661 0 0 0 
201 1 85 69.6775 60.6009 51.3172 0 0 0 
202 1 85 71.8565 59.3618 51.6053 0 0 0 
203 1 85 72.0594 60.8225 50.6678 0 0 0 
208 1 85 55.9077 63.4957 50.541 0 0 0 
84 1 90 59.6502 63.4242 50.6232 0 0 0 
85 1 92 61.0481 63.3864 50.5541 0 0 0 
86 1 119 59.0272 64.6529 50.6668 0 0 0 
87 1 82 57.6539 64.6565 51.0297 0 0 0 
88 1 82 56.956 63.5549 50.2441 0 0 0 
93 1 81 57.0726 66.0435 50.715 0 0 0 
95 1 90 61.7577 64.6032 50.4839 0 0 0 
207 1 85 57.5818 64.4372 52.0962 0 0 0 
215 1 85 56.3127 66.2916 51.4559 0 0 0 
216 1 85 57.8772 66.7683 50.8349 0 0 0 
217 1 91 61.2231 65.5436 50.4752 0 0 0 
69 1 92 65.2639 63.3628 50.325 0 0 0 
70 1 92 63.8522 63.3622 50.4278 0 0 0 
94 1 92 63.1576 64.5975 50.4105 0 0 0 
96 1 92 65.9577 64.5996 50.1993 0 0 0 
97 1 92 65.2546 65.8239 50.2135 0 0 0 
98 1 90 63.8572 65.8193 50.3166 0 0 0 
99 1 92 67.3602 64.6368 50.0561 0 0 0 
102 1 119 65.8816 67.0442 50.1047 0 0 0 
103 1 92 67.2573 67.0752 50.0394 0 0 0 
114 1 92 67.9027 68.336 50.0639 0 0 0 
218 1 91 63.3393 66.7687 50.3107 0 0 0 
255 3 65 64.0233 63.983 55.0006 0 0 0 
256 3 67 63.9991 63.8746 54.9021 0 0 0 
257 3 66 64.0812 63.9622 54.035 0 0 0 
258 3 66 63.6226 63.1523 55.2254 0 0 0 
113 1 92 69.3188 68.4032 50.0143 0 0 0 
220 1 85 69.9776 62.6447 50.3953 0 0 0 
221 1 85 70.6447 64.6702 51.0185 0 0 0 
141 1 90 76.432 68.6696 50.0043 0 0 0 
144 1 81 77.8917 66.2374 50.5958 0 0 0 
245 1 85 75.9622 65.3482 50.458 0 0 0 
247 1 85 78.4273 65.2882 50.5501 0 0 0 
248 1 85 77.7577 66.482 51.6518 0 0 0 
250 1 85 79.6525 67.5131 50.3535 0 0 0 
121 1 90 67.1522 69.5337 50.1649 0 0 0 
122 1 90 67.8055 70.7791 50.248 0 0 0 
237 1 91 66.069 69.502 50.1953 0 0 0 
238 1 91 67.2125 71.6798 50.3343 0 0 0 
123 1 90 69.218 70.8444 50.2428 0 0 0 
124 1 92 69.9787 69.6549 50.1174 0 0 0 
125 1 92 71.3975 69.7097 50.1297 0 0 0 
126 1 92 72.0549 70.9541 50.2762 0 0 0 
127 1 92 71.2915 72.1434 50.4004 0 0 0 
128 1 90 69.8803 72.0833 50.3774 0 0 0 
129 1 90 71.9487 73.3849 50.5493 0 0 0 
130 1 90 73.3541 73.4419 50.5799 0 0 0 
131 1 92 74.1151 72.2602 50.4533 0 0 0 
132 1 92 73.4744 71.0074 50.296 0 0 0 
133 1 92 74.2461 69.8194 50.1587 0 0 0 
239 1 91 69.3003 72.9892 50.4763 0 0 0 
240 1 91 71.3754 74.2972 50.644 0 0 0 
241 1 91 73.8469 74.3973 50.6989 0 0 0 
136 1 92 75.6701 69.8746 50.1592 0 0 0 
137 1 90 76.2732 71.148 50.3362 0 0 0 
138 1 90 75.5182 72.3183 50.4841 0 0 0 
242 1 91 77.3382 71.2764 50.38 0 0 0 
243 1 91 76.0317 73.2594 50.6217 0 0 0 
ITEM: TIMESTEP
3000
ITEM: NUMBER OF ATOMS
258
ITEM: BOX BOUNDS pp pp pp
0.0000000000000000e+00 1.0000000000000000e+02
0.0000000000000000e+00 1.0000000000000000e+02
0.0000000000000000e+00 1.0000000000000000e+02
ITEM: ATOMS id mol type x y z ix iy iz 
182 1 85 55.7439 48.819 48.415 0 0 0 
233 1 85 55.9374 48.1373 46.1164 0 0 0 
42 1 82 56.2774 49.7686 48.3304 0 0 0 
43 1 81 57.6797 49.564 48.9084 0 0 0 
119 1 80 56.6224 48.9679 45.9457 0 0 0 
184 1 85 58.2927 48.9335 48.2653 0 0 0 
234 1 85 57.6338 48.6148 46.1461 0 0 0 
235 1 85 56.5728 49.2371 44.8909 0 0 0 
37 1 81 55.1688 49.3333 53.2326 0 0 0 
176 1 85 55.1895 49.2835 54.3186 0 0 0 
177 1 85 54.585 48.4926 52.8631 0 0 0 
38 1 81 56.5702 49.318 52.665 0 0 0 
39 1 86 56.5305 49.6036 51.189 0 0 0 
44 1 81 57.5693 48.9363 50.2961 0 0 0 
178 1 85 57.0443 48.3555 52.8354 0 0 0 
185 1 85 58.536 48.986 50.8051 0 0 0 
186 1 85 57.3289 47.8757 50.2181 0 0 0 
2 1 81 49.8189 51.8958 47.3596 0 0 0 
3 1 82 48.451 52.2033 48.0043 0 0 0 
4 1 82 48.4224 53.6794 48.4371 0 0 0 
5 1 81 48.664 54.5971 47.2143 0 0 0 
6 1 122 49.1973 53.8844 46.1025 0 0 0 
7 1 82 49.4426 53.9396 49.5696 0 0 0 
10 1 81 48.1015 51.2474 49.1713 0 0 0 
150 1 85 49.7493 50.9713 46.789 0 0 0 
152 1 85 47.703 52.0859 47.219 0 0 0 
153 1 85 47.4359 53.897 48.8455 0 0 0 
154 1 85 49.3364 55.4162 47.4763 0 0 0 
155 1 85 47.726 55.04 46.8833 0 0 0 
160 1 85 47.0717 50.9048 49.0789 0 0 0 
161 1 85 48.7307 50.3592 49.1083 0 0 0 
164 1 85 49.1633 56.089 49.6184 0 0 0 
1 1 81 50.2975 53.0626 46.4643 0 0 0 
41 1 81 55.5261 50.7896 49.2037 0 0 0 
148 1 85 50.7601 52.6961 45.5509 0 0 0 
149 1 85 51.0464 53.6663 46.9847 0 0 0 
151 1 85 50.5675 51.7129 48.1332 0 0 0 
156 1 85 50.4059 54.0744 49.0784 0 0 0 
180 1 85 54.4773 50.7673 48.8965 0 0 0 
181 1 85 55.8769 51.8017 49.0051 0 0 0 
229 1 85 55.2499 50.4704 46.5936 0 0 0 
117 1 82 56.2704 50.1658 46.8391 0 0 0 
118 1 80 57.1988 51.3515 46.5301 0 0 0 
183 1 85 58.1887 50.5276 48.9876 0 0 0 
230 1 85 57.0787 51.6815 45.4994 0 0 0 
231 1 85 58.2443 51.0779 46.6715 0 0 0 
232 1 85 56.997 52.2103 47.172 0 0 0 
195 1 85 67.7477 55.1497 49.9066 0 0 0 
197 1 85 70.0799 55.4728 49.1536 0 0 0 
168 1 85 52.282 58.9801 49.6785 0 0 0 
191 1 85 68.0133 59.004 49.0548 0 0 0 
192 1 85 66.7256 57.1461 49.137 0 0 0 
76 1 81 69.4663 56.3612 49.2916 0 0 0 
77 1 82 70.3094 57.4904 49.9045 0 0 0 
81 1 81 72.1695 58.9886 49.4777 0 0 0 
82 1 731 71.1897 58.0698 48.8889 0 0 0 
196 1 85 69.1058 56.6547 48.3032 0 0 0 
200 1 85 69.8478 60.3894 49.5862 0 0 0 
204 1 85 73.0312 58.4168 49.8193 0 0 0 
205 1 85 72.5293 59.6402 48.6816 0 0 0 
206 1 740 70.6203 58.5591 48.2075 0 0 0 
225 1 85 71.5643 61.5723 48.4908 0 0 0 
227 1 85 69.2668 61.9837 48.0694 0 0 0 
210 1 85 56.1779 63.3178 48.2429 0 0 0 
213 1 85 55.4231 65.8327 49.3158 0 0 0 
90 1 81 57.0619 63.7473 48.7126 0 0 0 
91 1 81 57.2201 65.2301 48.3117 0 0 0 
92 1 81 56.4699 66.1416 49.295 0 0 0 
209 1 85 57.9148 63.179 48.335 0 0 0 
211 1 85 56.8745 65.3809 47.2904 0 0 0 
212 1 85 58.2804 65.4973 48.3246 0 0 0 
214 1 85 56.4837 67.1764 48.9557 0 0 0 
100 1 90 68.0618 63.4218 49.9892 0 0 0 
104 1 92 68.0211 65.884 49.9873 0 0 0 
105 1 82 69.5507 63.3794 49.7104 0 0 0 
106 1 82 70.2827 64.7097 49.9865 0 0 0 
107 1 90 69.4292 65.9625 49.9199 0 0 0 
108 1 82 71.5034 64.901 49.085 0 0 0 
109 1 81 72.2491 63.5722 48.9246 0 0 0 
110 1 81 71.3638 62.5792 48.1402 0 0 0 
111 1 81 69.856 62.8719 48.2933 0 0 0 
112 1 92 70.0823 67.2195 49.8966 0 0 0 
115 1 90 72.2599 66.1327 49.5356 0 0 0 
116 1 92 71.5003 67.2906 49.8165 0 0 0 
134 1 92 73.5824 68.5778 49.9973 0 0 0 
135 1 92 72.1626 68.5278 49.9864 0 0 0 
139 1 90 73.66 66.1748 49.5807 0 0 0 
140 1 92 74.3338 67.3865 49.8524 0 0 0 
222 1 85 71.1307 65.1749 48.0929 0 0 0 
223 1 85 72.4733 63.1867 49.9213 0 0 0 
224 1 85 73.1958 63.6984 48.4057 0 0 0 
226 1 85 71.6286 62.5937 47.0835 0 0 0 
228 1 85 69.5354 63.6304 47.5763 0 0 0 
244 1 91 74.2076 65.2728 49.3646 0 0 0 
142 1 90 75.7462 67.4235 49.924 0 0 0 
143 1 81 76.5297 66.1102 49.9224 0 0 0 
145 1 81 78.6839 67.335 49.8903 0 0 0 
146 1 222 77.9451 68.6629 49.8522 0 0 0 
246 1 85 76.6453 65.7625 48.8945 0 0 0 
249 1 85 78.8587 67.0545 48.8523 0 0 0 
147 1 223 78.6272 69.6595 49.6179 0 0 0 
8 1 82 49.5508 52.7453 50.5727 0 0 0 
9 1 81 48.2863 51.8988 50.5543 0 0 0 
11 1 122 49.7756 53.157 51.9202 0 0 0 
14 1 81 49.1257 55.2471 50.3058 0 0 0 
158 1 85 47.4441 52.5516 50.7884 0 0 0 
159 1 85 48.3334 51.1465 51.3392 0 0 0 
163 1 85 49.3187 55.7942 52.3435 0 0 0 
165 1 85 48.0961 55.1624 50.649 0 0 0 
12 1 82 50.6943 54.2368 52.0574 0 0 0 
13 1 82 50.0012 55.4998 51.5479 0 0 0 
17 1 90 52.948 55.1619 51.1958 0 0 0 
18 1 82 52.032 53.9539 51.3558 0 0 0 
19 1 92 54.3575 54.9762 51.0726 0 0 0 
20 1 92 55.2058 56.1061 50.9366 0 0 0 
30 1 86 52.8371 52.8322 51.9524 0 0 0 
31 1 82 54.041 52.4149 51.1532 0 0 0 
32 1 90 54.9296 53.6704 51.1118 0 0 0 
33 1 86 54.7262 51.1087 51.5752 0 0 0 
34 1 86 54.4558 50.5808 52.8086 0 0 0 
35 1 81 53.4084 51.1669 53.7407 0 0 0 
36 1 86 52.5374 52.2306 53.1212 0 0 0 
40 1 86 55.5958 50.4844 50.7096 0 0 0 
157 1 85 50.382 52.0955 50.2857 0 0 0 
162 1 85 50.9061 54.3895 53.1127 0 0 0 
166 1 85 51.8876 53.6284 50.3352 0 0 0 
172 1 85 53.6718 52.3057 50.1354 0 0 0 
173 1 85 53.8683 51.5406 54.6554 0 0 0 
174 1 85 52.7691 50.3353 54.0559 0 0 0 
175 1 85 51.6499 52.4804 53.6865 0 0 0 
29 1 92 56.6211 55.979 50.8816 0 0 0 
45 1 90 57.16 54.6764 50.9523 0 0 0 
46 1 90 56.3298 53.5533 51.0601 0 0 0 
48 1 90 59.6127 55.987 50.8346 0 0 0 
49 1 144 58.8805 54.3962 50.8937 0 0 0 
50 1 90 61.0079 56.0216 50.8251 0 0 0 
179 1 85 57.1896 50.0835 53.1385 0 0 0 
187 1 91 56.8025 52.5884 51.0982 0 0 0 
188 1 91 61.5466 55.0852 50.8533 0 0 0 
75 1 81 68.2502 56.0753 50.1856 0 0 0 
120 1 96 65.6908 55.9649 51.3794 0 0 0 
194 1 85 68.5684 55.9561 51.2234 0 0 0 
236 1 97 65.1121 55.9969 52.1246 0 0 0 
171 1 89 49.5043 58.0837 51.9408 0 0 0 
15 1 86 50.9597 56.6722 51.4367 0 0 0 
16 1 90 52.3713 56.4576 51.1491 0 0 0 
21 1 92 54.6263 57.3882 50.8395 0 0 0 
22 1 90 53.2316 57.5552 50.9128 0 0 0 
23 1 81 52.6145 58.9305 50.7172 0 0 0 
24 1 81 51.4177 59.1666 51.6375 0 0 0 
25 1 87 50.5397 57.9331 51.6787 0 0 0 
26 1 119 55.3858 58.5065 50.6409 0 0 0 
167 1 85 53.3513 59.7245 50.8422 0 0 0 
169 1 85 50.8501 60.0369 51.3117 0 0 0 
170 1 85 51.7633 59.3588 52.6537 0 0 0 
27 1 92 56.7492 58.3875 50.7011 0 0 0 
28 1 92 57.4241 57.1534 50.7867 0 0 0 
47 1 92 58.8527 57.1851 50.7858 0 0 0 
51 1 92 61.6848 57.2497 50.7862 0 0 0 
52 1 92 60.9736 58.4677 50.7448 0 0 0 
53 1 92 59.5518 58.4447 50.7359 0 0 0 
54 1 92 61.6938 59.6925 50.6894 0 0 0 
62 1 92 58.8509 59.683 50.6781 0 0 0 
63 1 90 57.4419 59.5921 50.6479 0 0 0 
64 1 92 60.9864 60.9233 50.6366 0 0 0 
65 1 92 59.5568 60.9414 50.6466 0 0 0 
67 1 92 61.7241 62.1428 50.5704 0 0 0 
83 1 90 58.908 62.2212 50.6308 0 0 0 
89 1 119 57.5409 62.3393 50.6466 0 0 0 
190 1 91 56.7749 60.4206 50.5791 0 0 0 
251 2 65 60.0014 59.9937 54.9099 0 0 0 
252 2 67 59.9808 59.9459 54.7707 0 0 0 
253 2 66 59.9764 60.501 54.0888 0 0 0 
254 2 66 59.7161 59.1233 54.6573 0 0 0 
55 1 92 63.1235 59.6781 50.6942 0 0 0 
56 1 92 63.8242 58.4398 50.7961 0 0 0 
57 1 90 63.0833 57.2415 50.7932 0 0 0 
58 1 90 65.2415 58.446 50.8991 0 0 0 
59 1 90 65.938 59.6566 50.7386 0 0 0 
60 1 92 65.2739 60.9002 50.5465 0 0 0 
61 1 92 63.8488 60.9033 50.5899 0 0 0 
66 1 92 63.1433 62.1329 50.5253 0 0 0 
68 1 92 65.9728 62.1365 50.3454 0 0 0 
71 1 119 67.297 59.5659 50.9038 0 0 0 
72 1 82 67.9827 58.622 50.078 0 0 0 
73 1 82 67.2595 57.249 50.0855 0 0 0 
74 1 100 66.1931 57.2694 51.1823 0 0 0 
101 1 90 67.3694 62.2137 50.1314 0 0 0 
189 1 91 63.5545 56.2794 50.7616 0 0 0 
193 1 85 66.7102 57.5272 52.1147 0 0 0 
219 1 91 67.9781 61.3489 50.0311 0 0 0 
78 1 82 69.429 58.5641 50.6124 0 0 0 
79 1 81 70.0899 59.9459 50.55 0 0 0 
80 1 81 71.6087 59.829 50.6513 0 0 0 
198 1 85 70.9563 57.0473 50.6615 0 0 0 
199 1 85 69.351 58.2772 51.6661 0 0 0 
201 1 85 69.6775 60.6009 51.3172 0 0 0 
202 1 85 71.8565 59.3618 51.6053 0 0 0 
203 1 85 72.0594 60.8225 50.6678 0 0 0 
208 1 85 55.9077 63.4957 50.541 0 0 0 
84 1 90 59.6502 63.4242 50.6232 0 0 0 
85 1 92 61.0481 63.3864 50.5541 0 0 0 
86 1 119 59.0272 64.6529 50.6668 0 0 0 
87 1 82 57.6539 64.6565 51.0297 0 0 0 
88 1 82 56.956 63.5549 50.2441 0 0 0 
93 1 81 57.0726 66.0435 50.715 0 0 0 
95 1 90 61.7577 64.6032 50.4839 0 0 0 
207 1 85 57.5818 64.4372 52.0962 0 0 0 
215 1 85 56.3127 66.2916 51.4559 0 0 0 
216 1 85 57.8772 66.7683 50.8349 0 0 0 
217 1 91 61.2231 65.5436 50.4752 0 0 0 
69 1 92 65.2639 63.3628 50.325 0 0 0 
70 1 92 63.8522 63.3622 50.4278 0 0 0 
94 1 92 63.1576 64.5975 50.4105 0 0 0 
96 1 92 65.9577 64.5996 50.1993 0 0 0 
97 1 92 65.2546 65.8239 50.2135 0 0 0 
98 1 90 63.8572 65.8193 50.3166 0 0 0 
99 1 92 67.3602 64.6368 50.0561 0 0 0 
102 1 119 65.8816 67.0442 50.1047 0 0 0 
103 1 92 67.2573 67.0752 50.0394 0 0 0 
114 1 92 67.9027 68.336 50.0639 0 0 0 
218 1 91 63.3393 66.7687 50.3107 0 0 0 
255 3 65 64.0235 63.9671 54.9801 0 0 0 
256 3 67 64.009 63.8793 54.8613 0 0 0 
257 3 66 64.2724 64.0875 54.0528 0 0 0 
258 3 66 63.5049 63.172 54.9783 0 0 0 
113 1 92 69.3188 68.4032 50.0143 0 0 0 