LAMMPS (3 Mar 2020)
Reading data file ...
  orthogonal box = (0 -20 -20) to (99.7477 120 120)
  3 by 3 by 4 MPI processor grid
  reading atoms ...
  67474 atoms
  reading velocities ...
  67474 velocities
  scanning bonds ...
  3 = max bonds/atom
  scanning angles ...
  3 = max angles/atom
  reading bonds ...
  14187 bonds
  reading angles ...
  14187 angles
Finding 1-2 1-3 1-4 neighbors ...
  special bond factors lj:   0          0          0.5       
  special bond factors coul: 0          0          0.5       
  3 = max # of 1-2 neighbors
  2 = max # of 1-3 neighbors
  2 = max # of 1-4 neighbors
  3 = max # of special neighbors
  special bonds CPU = 0.435593 secs
  read_data CPU = 1.08195 secs
48558 atoms in group gCoal
18916 atoms in group gH2O
18916 atoms in group gMobile
Setting atom values ...
  0 settings made for charge
Setting atom values ...
  0 settings made for charge
Setting atom values ...
  0 settings made for charge
Setting atom values ...
  0 settings made for charge
Setting atom values ...
  0 settings made for charge
Setting atom values ...
  0 settings made for charge
Setting atom values ...
  0 settings made for charge
Setting atom values ...
  0 settings made for charge
Setting atom values ...
  0 settings made for charge
Setting atom values ...
  0 settings made for charge
Setting atom values ...
  0 settings made for charge
Setting atom values ...
  0 settings made for charge
Setting atom values ...
  0 settings made for charge
Setting atom values ...
  0 settings made for charge
Setting atom values ...
  0 settings made for charge
Setting atom values ...
  0 settings made for charge
Setting atom values ...
  0 settings made for charge
Setting atom values ...
  0 settings made for charge
Setting atom values ...
  0 settings made for charge
Setting atom values ...
  0 settings made for charge
Setting atom values ...
  0 settings made for charge
Setting atom values ...
  0 settings made for charge
Setting atom values ...
  0 settings made for charge
Setting atom values ...
  0 settings made for charge
Setting atom values ...
  0 settings made for charge
Setting atom values ...
  0 settings made for charge
Setting atom values ...
  0 settings made for charge
Setting atom values ...
  0 settings made for charge
Setting atom values ...
  0 settings made for charge
Setting atom values ...
  0 settings made for charge
Setting atom values ...
  0 settings made for charge
Setting atom values ...
  0 settings made for charge
Setting atom values ...
  0 settings made for charge
Setting atom values ...
  0 settings made for charge
Setting atom values ...
  0 settings made for charge
Setting atom values ...
  0 settings made for charge
Setting atom values ...
  0 settings made for charge
Setting atom values ...
  0 settings made for charge
Setting atom values ...
  0 settings made for charge
Setting atom values ...
  0 settings made for charge
Setting atom values ...
  0 settings made for charge
Setting atom values ...
  0 settings made for charge
Setting atom values ...
  0 settings made for charge
Setting atom values ...
  0 settings made for charge
Setting atom values ...
  0 settings made for charge
Setting atom values ...
  0 settings made for charge
Setting atom values ...
  0 settings made for charge
Setting atom values ...
  0 settings made for charge
Setting atom values ...
  0 settings made for charge
Setting atom values ...
  0 settings made for charge
Setting atom values ...
  0 settings made for charge
Setting atom values ...
  0 settings made for charge
Setting atom values ...
  0 settings made for charge
Setting atom values ...
  0 settings made for charge
Setting atom values ...
  0 settings made for charge
Setting atom values ...
  0 settings made for charge
Setting atom values ...
  0 settings made for charge
Setting atom values ...
  0 settings made for charge
Setting atom values ...
  0 settings made for charge
Setting atom values ...
  0 settings made for charge
Setting atom values ...
  0 settings made for charge
Setting atom values ...
  0 settings made for charge
Setting atom values ...
  0 settings made for charge
Setting atom values ...
  0 settings made for charge
Setting atom values ...
  4729 settings made for charge
Setting atom values ...
  9458 settings made for charge
Setting atom values ...
  4729 settings made for charge
Setting atom values ...
  0 settings made for charge
Setting atom values ...
  0 settings made for charge
Setting atom values ...
  0 settings made for charge
Setting atom values ...
  0 settings made for charge
Setting atom values ...
  0 settings made for charge
Setting atom values ...
  0 settings made for charge
Setting atom values ...
  0 settings made for charge
Setting atom values ...
  0 settings made for charge
Setting atom values ...
  0 settings made for charge
Setting atom values ...
  0 settings made for charge
Setting atom values ...
  0 settings made for charge
Setting atom values ...
  0 settings made for charge
Setting atom values ...
  604 settings made for charge
Setting atom values ...
  3490 settings made for charge
Setting atom values ...
  1172 settings made for charge
Setting atom values ...
  0 settings made for charge
Setting atom values ...
  8 settings made for charge
Setting atom values ...
  15743 settings made for charge
Setting atom values ...
  974 settings made for charge
Setting atom values ...
  230 settings made for charge
Setting atom values ...
  0 settings made for charge
Setting atom values ...
  230 settings made for charge
Setting atom values ...
  4497 settings made for charge
Setting atom values ...
  2179 settings made for charge
Setting atom values ...
  9085 settings made for charge
Setting atom values ...
  862 settings made for charge
Setting atom values ...
  888 settings made for charge
Setting atom values ...
  0 settings made for charge
Setting atom values ...
  115 settings made for charge
Setting atom values ...
  115 settings made for charge
Setting atom values ...
  0 settings made for charge
Setting atom values ...
  0 settings made for charge
Setting atom values ...
  0 settings made for charge
Setting atom values ...
  0 settings made for charge
Setting atom values ...
  0 settings made for charge
Setting atom values ...
  0 settings made for charge
Setting atom values ...
  0 settings made for charge
Setting atom values ...
  0 settings made for charge
Setting atom values ...
  0 settings made for charge
Setting atom values ...
  0 settings made for charge
Setting atom values ...
  406 settings made for charge
Setting atom values ...
  406 settings made for charge
Setting atom values ...
  406 settings made for charge
Setting atom values ...
  0 settings made for charge
Setting atom values ...
  0 settings made for charge
Setting atom values ...
  0 settings made for charge
Setting atom values ...
  0 settings made for charge
Setting atom values ...
  0 settings made for charge
Setting atom values ...
  0 settings made for charge
Setting atom values ...
  0 settings made for charge
Setting atom values ...
  0 settings made for charge
Setting atom values ...
  230 settings made for charge
Setting atom values ...
  0 settings made for charge
Setting atom values ...
  345 settings made for charge
Setting atom values ...
  230 settings made for charge
Setting atom values ...
  0 settings made for charge
Setting atom values ...
  230 settings made for charge
Setting atom values ...
  575 settings made for charge
Setting atom values ...
  0 settings made for charge
Setting atom values ...
  1035 settings made for charge
Setting atom values ...
  0 settings made for charge
Setting atom values ...
  0 settings made for charge
Setting atom values ...
  0 settings made for charge
Setting atom values ...
  0 settings made for charge
Setting atom values ...
  0 settings made for charge
Setting atom values ...
  0 settings made for charge
Setting atom values ...
  0 settings made for charge
Setting atom values ...
  0 settings made for charge
Setting atom values ...
  0 settings made for charge
Setting atom values ...
  0 settings made for charge
Setting atom values ...
  0 settings made for charge
Setting atom values ...
  0 settings made for charge
Setting atom values ...
  0 settings made for charge
Setting atom values ...
  805 settings made for charge
Setting atom values ...
  0 settings made for charge
Setting atom values ...
  0 settings made for charge
Setting atom values ...
  0 settings made for charge
Setting atom values ...
  0 settings made for charge
Setting atom values ...
  0 settings made for charge
Setting atom values ...
  0 settings made for charge
Setting atom values ...
  0 settings made for charge
Setting atom values ...
  0 settings made for charge
Setting atom values ...
  0 settings made for charge
Setting atom values ...
  0 settings made for charge
Setting atom values ...
  0 settings made for charge
Setting atom values ...
  0 settings made for charge
Setting atom values ...
  0 settings made for charge
Setting atom values ...
  0 settings made for charge
Setting atom values ...
  0 settings made for charge
Setting atom values ...
  0 settings made for charge
Setting atom values ...
  0 settings made for charge
Setting atom values ...
  0 settings made for charge
Setting atom values ...
  0 settings made for charge
Setting atom values ...
  115 settings made for charge
Setting atom values ...
  0 settings made for charge
Setting atom values ...
  115 settings made for charge
Setting atom values ...
  0 settings made for charge
Setting atom values ...
  0 settings made for charge
Setting atom values ...
  0 settings made for charge
Setting atom values ...
  0 settings made for charge
Setting atom values ...
  0 settings made for charge
Setting atom values ...
  0 settings made for charge
Setting atom values ...
  230 settings made for charge
Setting atom values ...
  0 settings made for charge
Setting atom values ...
  0 settings made for charge
Setting atom values ...
  0 settings made for charge
Setting atom values ...
  0 settings made for charge
Setting atom values ...
  131 settings made for charge
Setting atom values ...
  0 settings made for charge
Setting atom values ...
  0 settings made for charge
Setting atom values ...
  0 settings made for charge
Setting atom values ...
  0 settings made for charge
Setting atom values ...
  0 settings made for charge
Setting atom values ...
  0 settings made for charge
Setting atom values ...
  0 settings made for charge
Setting atom values ...
  0 settings made for charge
Setting atom values ...
  0 settings made for charge
Setting atom values ...
  0 settings made for charge
Setting atom values ...
  0 settings made for charge
Setting atom values ...
  0 settings made for charge
Setting atom values ...
  0 settings made for charge
Setting atom values ...
  0 settings made for charge
Setting atom values ...
  0 settings made for charge
Setting atom values ...
  0 settings made for charge
Setting atom values ...
  0 settings made for charge
Setting atom values ...
  0 settings made for charge
Setting atom values ...
  0 settings made for charge
Setting atom values ...
  0 settings made for charge
Setting atom values ...
  0 settings made for charge
Setting atom values ...
  0 settings made for charge
Setting atom values ...
  0 settings made for charge
Setting atom values ...
  0 settings made for charge
Setting atom values ...
  0 settings made for charge
Setting atom values ...
  0 settings made for charge
Setting atom values ...
  0 settings made for charge
Setting atom values ...
  0 settings made for charge
Setting atom values ...
  0 settings made for charge
Setting atom values ...
  0 settings made for charge
Setting atom values ...
  0 settings made for charge
Setting atom values ...
  0 settings made for charge
Setting atom values ...
  0 settings made for charge
Setting atom values ...
  0 settings made for charge
Setting atom values ...
  0 settings made for charge
Setting atom values ...
  0 settings made for charge
Setting atom values ...
  0 settings made for charge
Setting atom values ...
  0 settings made for charge
Setting atom values ...
  0 settings made for charge
Setting atom values ...
  0 settings made for charge
Setting atom values ...
  0 settings made for charge
Setting atom values ...
  0 settings made for charge
Setting atom values ...
  0 settings made for charge
Setting atom values ...
  0 settings made for charge
Setting atom values ...
  0 settings made for charge
Setting atom values ...
  8 settings made for charge
Setting atom values ...
  268 settings made for charge
Setting atom values ...
  399 settings made for charge
Setting atom values ...
  0 settings made for charge
Setting atom values ...
  0 settings made for charge
Setting atom values ...
  0 settings made for charge
Setting atom values ...
  0 settings made for charge
Setting atom values ...
  0 settings made for charge
Setting atom values ...
  0 settings made for charge
Setting atom values ...
  0 settings made for charge
Setting atom values ...
  0 settings made for charge
Setting atom values ...
  0 settings made for charge
Setting atom values ...
  0 settings made for charge
Setting atom values ...
  0 settings made for charge
Setting atom values ...
  0 settings made for charge
Setting atom values ...
  0 settings made for charge
Setting atom values ...
  0 settings made for charge
Setting atom values ...
  0 settings made for charge
Setting atom values ...
  0 settings made for charge
Setting atom values ...
  0 settings made for charge
Setting atom values ...
  0 settings made for charge
Setting atom values ...
  0 settings made for charge
Setting atom values ...
  0 settings made for charge
Setting atom values ...
  0 settings made for charge
Setting atom values ...
  0 settings made for charge
Setting atom values ...
  0 settings made for charge
Setting atom values ...
  0 settings made for charge
Setting atom values ...
  0 settings made for charge
Setting atom values ...
  0 settings made for charge
Setting atom values ...
  0 settings made for charge
Setting atom values ...
  0 settings made for charge
Setting atom values ...
  0 settings made for charge
Setting atom values ...
  0 settings made for charge
Setting atom values ...
  0 settings made for charge
Setting atom values ...
  0 settings made for charge
Setting atom values ...
  0 settings made for charge
Setting atom values ...
  0 settings made for charge
Setting atom values ...
  0 settings made for charge
Setting atom values ...
  0 settings made for charge
Setting atom values ...
  0 settings made for charge
Setting atom values ...
  0 settings made for charge
Setting atom values ...
  0 settings made for charge
Setting atom values ...
  0 settings made for charge
Setting atom values ...
  0 settings made for charge
Setting atom values ...
  0 settings made for charge
Setting atom values ...
  0 settings made for charge
Setting atom values ...
  0 settings made for charge
Setting atom values ...
  0 settings made for charge
Setting atom values ...
  0 settings made for charge
Setting atom values ...
  0 settings made for charge
Setting atom values ...
  0 settings made for charge
Setting atom values ...
  0 settings made for charge
Setting atom values ...
  0 settings made for charge
Setting atom values ...
  0 settings made for charge
Setting atom values ...
  0 settings made for charge
Setting atom values ...
  0 settings made for charge
Setting atom values ...
  0 settings made for charge
Setting atom values ...
  0 settings made for charge
Setting atom values ...
  0 settings made for charge
Setting atom values ...
  0 settings made for charge
Setting atom values ...
  0 settings made for charge
Setting atom values ...
  0 settings made for charge
Setting atom values ...
  0 settings made for charge
Setting atom values ...
  0 settings made for charge
Setting atom values ...
  0 settings made for charge
Setting atom values ...
  0 settings made for charge
Setting atom values ...
  0 settings made for charge
Setting atom values ...
  0 settings made for charge
Setting atom values ...
  0 settings made for charge
Setting atom values ...
  0 settings made for charge
Setting atom values ...
  0 settings made for charge
Setting atom values ...
  0 settings made for charge
Setting atom values ...
  0 settings made for charge
Setting atom values ...
  0 settings made for charge
Setting atom values ...
  0 settings made for charge
Setting atom values ...
  0 settings made for charge
Setting atom values ...
  0 settings made for charge
Setting atom values ...
  0 settings made for charge
Setting atom values ...
  0 settings made for charge
Setting atom values ...
  0 settings made for charge
Setting atom values ...
  0 settings made for charge
Setting atom values ...
  0 settings made for charge
Setting atom values ...
  0 settings made for charge
Setting atom values ...
  0 settings made for charge
Setting atom values ...
  0 settings made for charge
Setting atom values ...
  0 settings made for charge
Setting atom values ...
  0 settings made for charge
Setting atom values ...
  0 settings made for charge
Setting atom values ...
  0 settings made for charge
Setting atom values ...
  0 settings made for charge
Setting atom values ...
  0 settings made for charge
Setting atom values ...
  0 settings made for charge
Setting atom values ...
  0 settings made for charge
Setting atom values ...
  0 settings made for charge
Setting atom values ...
  0 settings made for charge
Setting atom values ...
  0 settings made for charge
Setting atom values ...
  0 settings made for charge
Setting atom values ...
  0 settings made for charge
Setting atom values ...
  0 settings made for charge
Setting atom values ...
  0 settings made for charge
Setting atom values ...
  0 settings made for charge
Setting atom values ...
  0 settings made for charge
Setting atom values ...
  0 settings made for charge
Setting atom values ...
  0 settings made for charge
Setting atom values ...
  0 settings made for charge
Setting atom values ...
  0 settings made for charge
Setting atom values ...
  0 settings made for charge
Setting atom values ...
  0 settings made for charge
Setting atom values ...
  0 settings made for charge
Setting atom values ...
  0 settings made for charge
Setting atom values ...
  0 settings made for charge
Setting atom values ...
  0 settings made for charge
Setting atom values ...
  0 settings made for charge
Setting atom values ...
  0 settings made for charge
Setting atom values ...
  0 settings made for charge
Setting atom values ...
  0 settings made for charge
Setting atom values ...
  0 settings made for charge
Setting atom values ...
  0 settings made for charge
Setting atom values ...
  0 settings made for charge
Setting atom values ...
  0 settings made for charge
Setting atom values ...
  0 settings made for charge
Setting atom values ...
  0 settings made for charge
Setting atom values ...
  0 settings made for charge
Setting atom values ...
  0 settings made for charge
Setting atom values ...
  0 settings made for charge
Setting atom values ...
  0 settings made for charge
Setting atom values ...
  0 settings made for charge
Setting atom values ...
  0 settings made for charge
Setting atom values ...
  0 settings made for charge
Setting atom values ...
  0 settings made for charge
Setting atom values ...
  0 settings made for charge
Setting atom values ...
  0 settings made for charge
Setting atom values ...
  0 settings made for charge
Setting atom values ...
  0 settings made for charge
Setting atom values ...
  0 settings made for charge
Setting atom values ...
  0 settings made for charge
Setting atom values ...
  0 settings made for charge
Setting atom values ...
  0 settings made for charge
Setting atom values ...
  0 settings made for charge
Setting atom values ...
  0 settings made for charge
Setting atom values ...
  0 settings made for charge
Setting atom values ...
  0 settings made for charge
Setting atom values ...
  0 settings made for charge
Setting atom values ...
  0 settings made for charge
Setting atom values ...
  0 settings made for charge
Setting atom values ...
  0 settings made for charge
Setting atom values ...
  0 settings made for charge
Setting atom values ...
  0 settings made for charge
Setting atom values ...
  0 settings made for charge
Setting atom values ...
  0 settings made for charge
Setting atom values ...
  0 settings made for charge
Setting atom values ...
  0 settings made for charge
Setting atom values ...
  0 settings made for charge
Setting atom values ...
  0 settings made for charge
Setting atom values ...
  0 settings made for charge
Setting atom values ...
  0 settings made for charge
Setting atom values ...
  0 settings made for charge
Setting atom values ...
  0 settings made for charge
Setting atom values ...
  0 settings made for charge
Setting atom values ...
  0 settings made for charge
Setting atom values ...
  0 settings made for charge
Setting atom values ...
  0 settings made for charge
Setting atom values ...
  0 settings made for charge
Setting atom values ...
  0 settings made for charge
Setting atom values ...
  0 settings made for charge
Setting atom values ...
  0 settings made for charge
Setting atom values ...
  0 settings made for charge
Setting atom values ...
  0 settings made for charge
Setting atom values ...
  0 settings made for charge
Setting atom values ...
  0 settings made for charge
Setting atom values ...
  0 settings made for charge
Setting atom values ...
  0 settings made for charge
Setting atom values ...
  0 settings made for charge
Setting atom values ...
  0 settings made for charge
Setting atom values ...
  0 settings made for charge
Setting atom values ...
  0 settings made for charge
Setting atom values ...
  0 settings made for charge
Setting atom values ...
  0 settings made for charge
Setting atom values ...
  0 settings made for charge
Setting atom values ...
  0 settings made for charge
Setting atom values ...
  0 settings made for charge
Setting atom values ...
  0 settings made for charge
Setting atom values ...
  0 settings made for charge
Setting atom values ...
  0 settings made for charge
Setting atom values ...
  0 settings made for charge
Setting atom values ...
  0 settings made for charge
Setting atom values ...
  0 settings made for charge
Setting atom values ...
  0 settings made for charge
Setting atom values ...
  0 settings made for charge
Setting atom values ...
  0 settings made for charge
Setting atom values ...
  0 settings made for charge
Setting atom values ...
  0 settings made for charge
Setting atom values ...
  0 settings made for charge
Setting atom values ...
  0 settings made for charge
Setting atom values ...
  0 settings made for charge
Setting atom values ...
  0 settings made for charge
Setting atom values ...
  0 settings made for charge
Setting atom values ...
  0 settings made for charge
Setting atom values ...
  0 settings made for charge
Setting atom values ...
  0 settings made for charge
Setting atom values ...
  0 settings made for charge
Setting atom values ...
  0 settings made for charge
Setting atom values ...
  0 settings made for charge
Setting atom values ...
  0 settings made for charge
Setting atom values ...
  0 settings made for charge
Setting atom values ...
  0 settings made for charge
Setting atom values ...
  0 settings made for charge
Setting atom values ...
  0 settings made for charge
Setting atom values ...
  0 settings made for charge
Setting atom values ...
  0 settings made for charge
Setting atom values ...
  0 settings made for charge
Setting atom values ...
  0 settings made for charge
Setting atom values ...
  0 settings made for charge
Setting atom values ...
  0 settings made for charge
Setting atom values ...
  0 settings made for charge
Setting atom values ...
  0 settings made for charge
Setting atom values ...
  0 settings made for charge
Setting atom values ...
  0 settings made for charge
Setting atom values ...
  0 settings made for charge
Setting atom values ...
  0 settings made for charge
Setting atom values ...
  0 settings made for charge
Setting atom values ...
  0 settings made for charge
Setting atom values ...
  0 settings made for charge
Setting atom values ...
  0 settings made for charge
Setting atom values ...
  0 settings made for charge
Setting atom values ...
  0 settings made for charge
Setting atom values ...
  0 settings made for charge
Setting atom values ...
  0 settings made for charge
Setting atom values ...
  0 settings made for charge
Setting atom values ...
  0 settings made for charge
Setting atom values ...
  0 settings made for charge
Setting atom values ...
  0 settings made for charge
Setting atom values ...
  0 settings made for charge
Setting atom values ...
  0 settings made for charge
Setting atom values ...
  0 settings made for charge
Setting atom values ...
  697 settings made for charge
Setting atom values ...
  0 settings made for charge
Setting atom values ...
  0 settings made for charge
Setting atom values ...
  0 settings made for charge
Setting atom values ...
  0 settings made for charge
Setting atom values ...
  122 settings made for charge
Setting atom values ...
  122 settings made for charge
Setting atom values ...
  244 settings made for charge
Setting atom values ...
  122 settings made for charge
Setting atom values ...
  0 settings made for charge
Setting atom values ...
  0 settings made for charge
Setting atom values ...
  0 settings made for charge
Setting atom values ...
  0 settings made for charge
Setting atom values ...
  0 settings made for charge
Setting atom values ...
  0 settings made for charge
Setting atom values ...
  0 settings made for charge
Setting atom values ...
  0 settings made for charge
Setting atom values ...
  0 settings made for charge
Setting atom values ...
  0 settings made for charge
Setting atom values ...
  0 settings made for charge
Setting atom values ...
  0 settings made for charge
Setting atom values ...
  0 settings made for charge
Setting atom values ...
  0 settings made for charge
Setting atom values ...
  0 settings made for charge
Setting atom values ...
  0 settings made for charge
Setting atom values ...
  0 settings made for charge
Setting atom values ...
  0 settings made for charge
Setting atom values ...
  0 settings made for charge
Setting atom values ...
  0 settings made for charge
Setting atom values ...
  0 settings made for charge
Setting atom values ...
  0 settings made for charge
Setting atom values ...
  0 settings made for charge
Setting atom values ...
  0 settings made for charge
Setting atom values ...
  0 settings made for charge
Setting atom values ...
  0 settings made for charge
Setting atom values ...
  0 settings made for charge
Setting atom values ...
  0 settings made for charge
Setting atom values ...
  0 settings made for charge
Setting atom values ...
  0 settings made for charge
Setting atom values ...
  0 settings made for charge
Setting atom values ...
  0 settings made for charge
Setting atom values ...
  0 settings made for charge
Setting atom values ...
  0 settings made for charge
Setting atom values ...
  0 settings made for charge
Setting atom values ...
  0 settings made for charge
Setting atom values ...
  0 settings made for charge
Setting atom values ...
  0 settings made for charge
Setting atom values ...
  0 settings made for charge
Setting atom values ...
  0 settings made for charge
Setting atom values ...
  0 settings made for charge
Setting atom values ...
  0 settings made for charge
Setting atom values ...
  0 settings made for charge
Setting atom values ...
  0 settings made for charge
Setting atom values ...
  0 settings made for charge
Setting atom values ...
  0 settings made for charge
Setting atom values ...
  0 settings made for charge
Setting atom values ...
  0 settings made for charge
Setting atom values ...
  0 settings made for charge
Setting atom values ...
  0 settings made for charge
Setting atom values ...
  0 settings made for charge
Setting atom values ...
  0 settings made for charge
Setting atom values ...
  0 settings made for charge
Setting atom values ...
  0 settings made for charge
Setting atom values ...
  0 settings made for charge
Setting atom values ...
  0 settings made for charge
Setting atom values ...
  0 settings made for charge
Setting atom values ...
  0 settings made for charge
Setting atom values ...
  0 settings made for charge
Setting atom values ...
  0 settings made for charge
Setting atom values ...
  0 settings made for charge
Setting atom values ...
  0 settings made for charge
Setting atom values ...
  0 settings made for charge
Setting atom values ...
  0 settings made for charge
Setting atom values ...
  0 settings made for charge
Setting atom values ...
  0 settings made for charge
Setting atom values ...
  0 settings made for charge
Setting atom values ...
  0 settings made for charge
Setting atom values ...
  0 settings made for charge
Setting atom values ...
  0 settings made for charge
Setting atom values ...
  0 settings made for charge
Setting atom values ...
  0 settings made for charge
Setting atom values ...
  0 settings made for charge
Setting atom values ...
  0 settings made for charge
Setting atom values ...
  0 settings made for charge
Setting atom values ...
  0 settings made for charge
Setting atom values ...
  0 settings made for charge
Setting atom values ...
  0 settings made for charge
Setting atom values ...
  0 settings made for charge
Setting atom values ...
  16 settings made for charge
Setting atom values ...
  16 settings made for charge
Setting atom values ...
  16 settings made for charge
Setting atom values ...
  16 settings made for charge
Setting atom values ...
  16 settings made for charge
Setting atom values ...
  8 settings made for charge
Setting atom values ...
  8 settings made for charge
Setting atom values ...
  8 settings made for charge
Setting atom values ...
  16 settings made for charge
Setting atom values ...
  8 settings made for charge
Setting atom values ...
  8 settings made for charge
Setting atom values ...
  0 settings made for charge
Setting atom values ...
  8 settings made for charge
Setting atom values ...
  8 settings made for charge
Setting atom values ...
  8 settings made for charge
Setting atom values ...
  0 settings made for charge
Setting atom values ...
  16 settings made for charge
Setting atom values ...
  0 settings made for charge
Setting atom values ...
  0 settings made for charge
Setting atom values ...
  0 settings made for charge
Setting atom values ...
  0 settings made for charge
Setting atom values ...
  0 settings made for charge
Setting atom values ...
  0 settings made for charge
Setting atom values ...
  0 settings made for charge
Setting atom values ...
  0 settings made for charge
Setting atom values ...
  0 settings made for charge
Setting atom values ...
  0 settings made for charge
Setting atom values ...
  0 settings made for charge
Setting atom values ...
  0 settings made for charge
Setting atom values ...
  0 settings made for charge
Setting atom values ...
  0 settings made for charge
Setting atom values ...
  0 settings made for charge
Setting atom values ...
  0 settings made for charge
Setting atom values ...
  0 settings made for charge
Setting atom values ...
  0 settings made for charge
Setting atom values ...
  0 settings made for charge
Setting atom values ...
  0 settings made for charge
Setting atom values ...
  0 settings made for charge
Setting atom values ...
  0 settings made for charge
Setting atom values ...
  0 settings made for charge
Setting atom values ...
  0 settings made for charge
Setting atom values ...
  0 settings made for charge
Setting atom values ...
  0 settings made for charge
Setting atom values ...
  0 settings made for charge
Setting atom values ...
  0 settings made for charge
Setting atom values ...
  0 settings made for charge
Setting atom values ...
  0 settings made for charge
Setting atom values ...
  0 settings made for charge
Setting atom values ...
  0 settings made for charge
Setting atom values ...
  0 settings made for charge
Setting atom values ...
  0 settings made for charge
Setting atom values ...
  0 settings made for charge
Setting atom values ...
  0 settings made for charge
Setting atom values ...
  0 settings made for charge
Setting atom values ...
  0 settings made for charge
Setting atom values ...
  0 settings made for charge
Setting atom values ...
  0 settings made for charge
Setting atom values ...
  0 settings made for charge
Setting atom values ...
  0 settings made for charge
Setting atom values ...
  0 settings made for charge
Setting atom values ...
  0 settings made for charge
Setting atom values ...
  0 settings made for charge
Setting atom values ...
  0 settings made for charge
Setting atom values ...
  0 settings made for charge
Setting atom values ...
  0 settings made for charge
Setting atom values ...
  0 settings made for charge
Setting atom values ...
  0 settings made for charge
Setting atom values ...
  0 settings made for charge
Setting atom values ...
  0 settings made for charge
Setting atom values ...
  0 settings made for charge
Setting atom values ...
  0 settings made for charge
Setting atom values ...
  0 settings made for charge
Setting atom values ...
  0 settings made for charge
Setting atom values ...
  0 settings made for charge
Setting atom values ...
  0 settings made for charge
Setting atom values ...
  0 settings made for charge
Setting atom values ...
  130 settings made for charge
Setting atom values ...
  0 settings made for charge
Setting atom values ...
  0 settings made for charge
Setting atom values ...
  0 settings made for charge
Setting atom values ...
  0 settings made for charge
Setting atom values ...
  0 settings made for charge
Setting atom values ...
  0 settings made for charge
Setting atom values ...
  0 settings made for charge
Setting atom values ...
  0 settings made for charge
Setting atom values ...
  0 settings made for charge
Setting atom values ...
  0 settings made for charge
Setting atom values ...
  122 settings made for charge
Setting atom values ...
  122 settings made for charge
Setting atom values ...
  0 settings made for charge
Setting atom values ...
  0 settings made for charge
Setting atom values ...
  0 settings made for charge
Setting atom values ...
  0 settings made for charge
Setting atom values ...
  115 settings made for charge
Setting atom values ...
  0 settings made for charge
Setting atom values ...
  0 settings made for charge
Setting atom values ...
  0 settings made for charge
Setting atom values ...
  0 settings made for charge
Setting atom values ...
  0 settings made for charge
Setting atom values ...
  0 settings made for charge
Setting atom values ...
  0 settings made for charge
Setting atom values ...
  0 settings made for charge
Setting atom values ...
  0 settings made for charge
Setting atom values ...
  0 settings made for charge
Setting atom values ...
  0 settings made for charge
Setting atom values ...
  0 settings made for charge
Setting atom values ...
  0 settings made for charge
Setting atom values ...
  0 settings made for charge
Setting atom values ...
  0 settings made for charge
Setting atom values ...
  0 settings made for charge
Setting atom values ...
  0 settings made for charge
Setting atom values ...
  0 settings made for charge
Setting atom values ...
  0 settings made for charge
Setting atom values ...
  0 settings made for charge
Setting atom values ...
  0 settings made for charge
Setting atom values ...
  0 settings made for charge
Setting atom values ...
  0 settings made for charge
Setting atom values ...
  0 settings made for charge
Setting atom values ...
  0 settings made for charge
Setting atom values ...
  0 settings made for charge
Setting atom values ...
  0 settings made for charge
Setting atom values ...
  0 settings made for charge
Setting atom values ...
  0 settings made for charge
Setting atom values ...
  0 settings made for charge
Setting atom values ...
  0 settings made for charge
Setting atom values ...
  0 settings made for charge
Setting atom values ...
  0 settings made for charge
Setting atom values ...
  0 settings made for charge
Setting atom values ...
  0 settings made for charge
Setting atom values ...
  0 settings made for charge
Setting atom values ...
  0 settings made for charge
Setting atom values ...
  0 settings made for charge
Setting atom values ...
  0 settings made for charge
Setting atom values ...
  0 settings made for charge
Setting atom values ...
  0 settings made for charge
Setting atom values ...
  0 settings made for charge
Setting atom values ...
  0 settings made for charge
Setting atom values ...
  0 settings made for charge
Setting atom values ...
  0 settings made for charge
Setting atom values ...
  0 settings made for charge
Setting atom values ...
  0 settings made for charge
Setting atom values ...
  0 settings made for charge
Setting atom values ...
  0 settings made for charge
Setting atom values ...
  0 settings made for charge
Setting atom values ...
  0 settings made for charge
Setting atom values ...
  0 settings made for charge
Setting atom values ...
  0 settings made for charge
Setting atom values ...
  0 settings made for charge
Setting atom values ...
  0 settings made for charge
Setting atom values ...
  0 settings made for charge
Setting atom values ...
  0 settings made for charge
Setting atom values ...
  0 settings made for charge
Setting atom values ...
  0 settings made for charge
Setting atom values ...
  0 settings made for charge
Setting atom values ...
  0 settings made for charge
Setting atom values ...
  0 settings made for charge
Setting atom values ...
  0 settings made for charge
Setting atom values ...
  0 settings made for charge
Setting atom values ...
  0 settings made for charge
Setting atom values ...
  0 settings made for charge
Setting atom values ...
  0 settings made for charge
Setting atom values ...
  0 settings made for charge
Setting atom values ...
  0 settings made for charge
Setting atom values ...
  0 settings made for charge
Setting atom values ...
  0 settings made for charge
Setting atom values ...
  0 settings made for charge
Setting atom values ...
  0 settings made for charge
Setting atom values ...
  0 settings made for charge
Setting atom values ...
  0 settings made for charge
Setting atom values ...
  0 settings made for charge
Setting atom values ...
  0 settings made for charge
Setting atom values ...
  0 settings made for charge
Setting atom values ...
  0 settings made for charge
Setting atom values ...
  0 settings made for charge
Setting atom values ...
  0 settings made for charge
Setting atom values ...
  0 settings made for charge
Setting atom values ...
  0 settings made for charge
Setting atom values ...
  0 settings made for charge
Setting atom values ...
  0 settings made for charge
Setting atom values ...
  0 settings made for charge
Setting atom values ...
  0 settings made for charge
Setting atom values ...
  0 settings made for charge
Setting atom values ...
  0 settings made for charge
Setting atom values ...
  0 settings made for charge
Setting atom values ...
  0 settings made for charge
Setting atom values ...
  0 settings made for charge
Setting atom values ...
  0 settings made for charge
Setting atom values ...
  115 settings made for charge
Setting atom values ...
  0 settings made for charge
Setting atom values ...
  0 settings made for charge
Setting atom values ...
  0 settings made for charge
Setting atom values ...
  0 settings made for charge
Setting atom values ...
  0 settings made for charge
Setting atom values ...
  115 settings made for charge
Setting atom values ...
  0 settings made for charge
Setting atom values ...
  0 settings made for charge
Setting atom values ...
  115 settings made for charge
Setting atom values ...
  0 settings made for charge
Setting atom values ...
  0 settings made for charge
Setting atom values ...
  0 settings made for charge
Setting atom values ...
  115 settings made for charge
Setting atom values ...
  0 settings made for charge
Setting atom values ...
  0 settings made for charge
Setting atom values ...
  0 settings made for charge
Setting atom values ...
  0 settings made for charge
Setting atom values ...
  0 settings made for charge
Setting atom values ...
  0 settings made for charge
Setting atom values ...
  0 settings made for charge
Setting atom values ...
  0 settings made for charge
Setting atom values ...
  0 settings made for charge
Setting atom values ...
  0 settings made for charge
Setting atom values ...
  0 settings made for charge
Setting atom values ...
  0 settings made for charge
Setting atom values ...
  0 settings made for charge
Setting atom values ...
  0 settings made for charge
Setting atom values ...
  0 settings made for charge
Setting atom values ...
  0 settings made for charge
Setting atom values ...
  0 settings made for charge
Setting atom values ...
  0 settings made for charge
Setting atom values ...
  0 settings made for charge
Setting atom values ...
  0 settings made for charge
Setting atom values ...
  0 settings made for charge
Setting atom values ...
  0 settings made for charge
Setting atom values ...
  0 settings made for charge
Setting atom values ...
  0 settings made for charge
Setting atom values ...
  0 settings made for charge
Setting atom values ...
  0 settings made for charge
Setting atom values ...
  0 settings made for charge
Setting atom values ...
  0 settings made for charge
Setting atom values ...
  0 settings made for charge
Setting atom values ...
  0 settings made for charge
Setting atom values ...
  0 settings made for charge
Setting atom values ...
  0 settings made for charge
Setting atom values ...
  0 settings made for charge
Setting atom values ...
  0 settings made for charge
Setting atom values ...
  0 settings made for charge
Setting atom values ...
  0 settings made for charge
Setting atom values ...
  0 settings made for charge
Setting atom values ...
  0 settings made for charge
Setting atom values ...
  0 settings made for charge
Setting atom values ...
  0 settings made for charge
Setting atom values ...
  0 settings made for charge
Setting atom values ...
  0 settings made for charge
Setting atom values ...
  0 settings made for charge
Setting atom values ...
  0 settings made for charge
Setting atom values ...
  0 settings made for charge
Setting atom values ...
  0 settings made for charge
Setting atom values ...
  0 settings made for charge
Setting atom values ...
  0 settings made for charge
Setting atom values ...
  0 settings made for charge
Setting atom values ...
  0 settings made for charge
Setting atom values ...
  0 settings made for charge
Setting atom values ...
  0 settings made for charge
Setting atom values ...
  0 settings made for charge
Setting atom values ...
  0 settings made for charge
Setting atom values ...
  0 settings made for charge
Setting atom values ...
  0 settings made for charge
Setting atom values ...
  0 settings made for charge
Setting atom values ...
  0 settings made for charge
Setting atom values ...
  0 settings made for charge
Setting atom values ...
  0 settings made for charge
Setting atom values ...
  0 settings made for charge
Setting atom values ...
  0 settings made for charge
Setting atom values ...
  0 settings made for charge
Setting atom values ...
  0 settings made for charge
Setting atom values ...
  0 settings made for charge
Setting atom values ...
  0 settings made for charge
Setting atom values ...
  0 settings made for charge
Setting atom values ...
  0 settings made for charge
Setting atom values ...
  0 settings made for charge
Setting atom values ...
  0 settings made for charge
Setting atom values ...
  0 settings made for charge
Setting atom values ...
  0 settings made for charge
Setting atom values ...
  0 settings made for charge
Setting atom values ...
  0 settings made for charge
Setting atom values ...
  0 settings made for charge
Setting atom values ...
  0 settings made for charge
Setting atom values ...
  0 settings made for charge
Setting atom values ...
  0 settings made for charge
Setting atom values ...
  0 settings made for charge
Setting atom values ...
  0 settings made for charge
Setting atom values ...
  0 settings made for charge
Setting atom values ...
  0 settings made for charge
Setting atom values ...
  0 settings made for charge
Setting atom values ...
  0 settings made for charge
Setting atom values ...
  0 settings made for charge
Setting atom values ...
  0 settings made for charge
Setting atom values ...
  0 settings made for charge
Setting atom values ...
  0 settings made for charge
Setting atom values ...
  0 settings made for charge
Setting atom values ...
  0 settings made for charge
Setting atom values ...
  0 settings made for charge
Setting atom values ...
  0 settings made for charge
Setting atom values ...
  0 settings made for charge
Setting atom values ...
  0 settings made for charge
Setting atom values ...
  0 settings made for charge
Setting atom values ...
  0 settings made for charge
Setting atom values ...
  0 settings made for charge
Setting atom values ...
  0 settings made for charge
Setting atom values ...
  0 settings made for charge
Setting atom values ...
  0 settings made for charge
Setting atom values ...
  0 settings made for charge
Setting atom values ...
  0 settings made for charge
Setting atom values ...
  0 settings made for charge
Setting atom values ...
  0 settings made for charge
Setting atom values ...
  0 settings made for charge
Setting atom values ...
  0 settings made for charge
Setting atom values ...
  0 settings made for charge
Setting atom values ...
  0 settings made for charge
Setting atom values ...
  0 settings made for charge
Setting atom values ...
  0 settings made for charge
Setting atom values ...
  0 settings made for charge
Setting atom values ...
  0 settings made for charge
Setting atom values ...
  0 settings made for charge
Setting atom values ...
  0 settings made for charge
Setting atom values ...
  0 settings made for charge
Setting atom values ...
  0 settings made for charge
Setting atom values ...
  0 settings made for charge
Setting atom values ...
  0 settings made for charge
Setting atom values ...
  0 settings made for charge
Setting atom values ...
  0 settings made for charge
Setting atom values ...
  0 settings made for charge
Setting atom values ...
  0 settings made for charge
Setting atom values ...
  0 settings made for charge
Setting atom values ...
  0 settings made for charge
Setting atom values ...
  0 settings made for charge
Setting atom values ...
  0 settings made for charge
Setting atom values ...
  0 settings made for charge
Setting atom values ...
  0 settings made for charge
Setting atom values ...
  0 settings made for charge
Setting atom values ...
  0 settings made for charge
Setting atom values ...
  0 settings made for charge
Setting atom values ...
  0 settings made for charge
Setting atom values ...
  0 settings made for charge
Setting atom values ...
  0 settings made for charge
Setting atom values ...
  0 settings made for charge
Setting atom values ...
  0 settings made for charge
Setting atom values ...
  0 settings made for charge
Setting atom values ...
  0 settings made for charge
Setting atom values ...
  0 settings made for charge
Setting atom values ...
  0 settings made for charge
Setting atom values ...
  0 settings made for charge
Setting atom values ...
  0 settings made for charge
Setting atom values ...
  0 settings made for charge
Setting atom values ...
  0 settings made for charge
Setting atom values ...
  0 settings made for charge
Setting atom values ...
  0 settings made for charge
Setting atom values ...
  0 settings made for charge
Setting atom values ...
  0 settings made for charge
Setting atom values ...
  0 settings made for charge
Setting atom values ...
  0 settings made for charge
Setting atom values ...
  0 settings made for charge
Setting atom values ...
  0 settings made for charge
Setting atom values ...
  0 settings made for charge
Setting atom values ...
  0 settings made for charge
Setting atom values ...
  0 settings made for charge
Setting atom values ...
  0 settings made for charge
Setting atom values ...
  0 settings made for charge
Setting atom values ...
  0 settings made for charge
Setting atom values ...
  0 settings made for charge
Setting atom values ...
  0 settings made for charge
Setting atom values ...
  0 settings made for charge
Setting atom values ...
  0 settings made for charge
Setting atom values ...
  122 settings made for charge
Setting atom values ...
  16 settings made for charge
  create bodies CPU = 0.0292292 secs
4729 rigid bodies with 18916 atoms
  0.941931 = max distance from body owner to body atom
WARNING: Temperature for thermo pressure is not for group all (../thermo.cpp:485)
PPPM initialization ...
  using 12-bit tables for long-range coulomb (../kspace.cpp:332)
  G vector (1/distance) = 0.228637
  grid = 36 48 48
  stencil order = 5
  estimated absolute RMS force accuracy = 0.0386228
  estimated relative force accuracy = 0.000116312
  using double precision KISS FFT
  3d grid and FFT values/proc = 8303 3456
WARNING: Neighbor exclusions used with KSpace solver may give inconsistent Coulombic energies (../neighbor.cpp:486)
Neighbor list info ...
  update every 1 steps, delay 0 steps, check yes
  max neighbors/atom: 2000, page size: 100000
  master list distance cutoff = 16
  ghost atom cutoff = 16
  binsize = 8, bins = 13 18 18
  1 neighbor lists, perpetual/occasional/extra = 1 0 0
  (1) pair lj/cut/coul/long, perpetual
      attributes: half, newton on
      pair build: half/bin/newton
      stencil: half/bin/3d/newton
      bin: standard
Setting up Verlet run ...
  Unit style    : real
  Current step  : 0
  Time step     : 0.1
Per MPI rank memory allocation (min/avg/max) = 15.78 | 22.21 | 47.41 Mbytes
Step Temp PotEng KinEng TotEng E_vdwl E_coul E_long E_pair Time 
       0    311.20696   -93689.619     8772.775   -84916.844    6808.6659    264678.86   -372488.72   -101001.19            0 
    1000    341.86952   -94548.533    9637.1379   -84911.395    11588.868    259069.81   -372518.78    -101860.1          100 
    2000          310   -95362.797    8738.7514   -86624.046    11394.381    258498.83   -372567.58   -102674.36          200 
    3000          310   -95735.865    8738.7514   -86997.114    11543.885    258052.84   -372644.16   -103047.43          300 
    4000          310   -95517.637    8738.7514   -86778.886    11143.669    258687.06   -372659.93    -102829.2          400 
    5000          310   -88717.487    8738.7514   -79978.735    16616.938    259990.43   -372636.42   -96029.054          500 
    6000          310   -82516.111    8738.7514    -73777.36    16789.824    265832.78   -372450.28   -89827.679          600 
    7000          310   -77399.578    8738.7514   -68660.826    16779.647    270898.76   -372389.01   -84710.604          700 
    8000          310   -76378.281    8738.7514    -67639.53    13594.883       274901   -372185.19   -83689.308          800 
    9000          310   -75034.087    8738.7514   -66295.336    12906.601    276835.73   -372087.45   -82345.114          900 
   10000          310   -73644.767    8738.7514   -64906.015    12482.908    278667.35   -372106.05   -80955.793         1000 
Loop time of 864.855 on 36 procs for 10000 steps with 67470 atoms

Performance: 0.100 ns/day, 240.238 hours/ns, 11.563 timesteps/s
98.6% CPU use with 36 MPI tasks x no OpenMP threads

MPI task timing breakdown:
Section |  min time  |  avg time  |  max time  |%varavg| %total
---------------------------------------------------------------
Pair    | 0.032006   | 91.966     | 626.48     |2050.7 | 10.63
Bond    | 0.018203   | 0.70896    | 4.7469     | 178.8 |  0.08
Kspace  | 143.94     | 662.06     | 751.99     | 735.6 | 76.55
Neigh   | 35.253     | 35.301     | 35.335     |   0.4 |  4.08
Comm    | 22.131     | 41.646     | 49.653     | 131.7 |  4.82
Output  | 0.54926    | 0.54985    | 0.55104    |   0.1 |  0.06
Modify  | 23.866     | 25.823     | 27.598     |  23.3 |  2.99
Other   |            | 6.797      |            |       |  0.79

Nlocal:    1874.17 ave 5757 max 151 min
Histogram: 12 1 7 10 0 0 0 0 1 5
Nghost:    10056.4 ave 22754 max 3634 min
Histogram: 12 0 6 12 0 0 0 0 0 6
Neighs:    619118 ave 4.55915e+06 max 0 min
Histogram: 30 0 0 0 1 1 0 1 1 2

Total # of neighbors = 22288237
Ave neighs/atom = 330.343
Ave special neighs/atom = 0.840907
Neighbor list builds = 113
Dangerous builds = 27
Total wall time: 0:14:27

real	14m31.383s
user	171m24.323s
sys	0m45.548s
