ITEM: TIMESTEP
1000
ITEM: NUMBER OF ATOMS
568
ITEM: BOX BOUNDS pp pp pp
0.0000000000000000e+00 1.0000000000000000e+02
0.0000000000000000e+00 1.0000000000000000e+02
0.0000000000000000e+00 1.0000000000000000e+02
ITEM: ATOMS id mol type x y z ix iy iz 
73 1 80 18.0499 18.3274 23.1614 0 0 0 
62 1 80 29.1153 21.1121 26.1855 0 0 0 
117 1 85 30.1782 21.3151 26.3095 0 0 0 
118 1 85 28.7873 20.5664 27.0702 0 0 0 
80 1 85 27.2566 19.1702 24.0194 0 0 0 
1 1 90 15.5445 21.7803 22.6156 0 0 0 
5 1 90 17.6059 23.1065 22.6859 0 0 0 
6 1 90 16.2187 23.0023 22.3933 0 0 0 
54 1 81 15.4414 24.2124 21.8528 0 0 0 
55 1 80 15.4309 24.317 20.3198 0 0 0 
56 1 80 14.0634 21.6409 22.2475 0 0 0 
97 1 85 14.4215 24.1945 22.2324 0 0 0 
98 1 85 14.9867 23.4318 19.866 0 0 0 
99 1 85 16.4433 24.4033 19.9264 0 0 0 
101 1 85 13.817 20.6301 21.9288 0 0 0 
102 1 85 13.7758 22.2693 21.4093 0 0 0 
108 1 85 15.2039 18.8672 22.6577 0 0 0 
57 1 80 18.2467 24.4885 22.474 0 0 0 
4 1 92 18.3434 21.9695 23.1801 0 0 0 
70 1 80 20.4793 22.4663 22.0512 0 0 0 
104 1 85 18.038 24.8643 21.4757 0 0 0 
105 1 85 19.3226 24.5446 22.5793 0 0 0 
20 1 90 27.0231 22.3079 23.7104 0 0 0 
23 1 81 28.5359 22.2832 23.4238 0 0 0 
24 1 82 29.2935 20.9672 23.6102 0 0 0 
25 1 82 28.8315 20.305 24.902 0 0 0 
26 1 81 27.343 19.9948 24.7298 0 0 0 
63 1 80 30.8168 21.1601 23.5297 0 0 0 
75 1 85 28.6891 22.5616 22.382 0 0 0 
76 1 85 29.0034 23.0474 24.0459 0 0 0 
77 1 85 29.0135 20.3099 22.7855 0 0 0 
78 1 85 29.3553 19.3538 25.0053 0 0 0 
119 1 85 28.591 22.0683 26.1883 0 0 0 
120 1 85 31.1044 21.5528 22.554 0 0 0 
121 1 85 31.3431 20.2177 23.6781 0 0 0 
122 1 85 31.1732 21.8669 24.2793 0 0 0 
96 1 85 15.8268 25.1375 22.2747 0 0 0 
100 1 85 14.8671 25.1886 19.9899 0 0 0 
106 1 85 17.8465 25.1871 23.2071 0 0 0 
36 1 81 24.9165 31.0125 24.1167 0 0 0 
37 1 90 26.4262 30.8888 23.9659 0 0 0 
84 1 85 24.5289 31.2897 23.1369 0 0 0 
31 1 173 26.6061 27.2718 22.5934 0 0 0 
67 1 223 27.3694 27.2591 21.6216 0 0 0 
83 1 85 24.6149 31.8 24.7998 0 0 0 
42 1 90 27.2929 31.9741 24.2613 0 0 0 
43 1 81 26.7589 33.2826 24.8501 0 0 0 
44 1 81 27.8198 34.2225 25.4363 0 0 0 
45 1 81 29.0132 34.3225 24.4914 0 0 0 
47 1 81 30.878 32.9832 23.4312 0 0 0 
85 1 85 26.2044 33.7902 24.0616 0 0 0 
88 1 85 27.3889 35.205 25.6245 0 0 0 
89 1 85 29.7403 35.0375 24.8743 0 0 0 
90 1 85 28.6867 34.6818 23.515 0 0 0 
92 1 85 30.6006 33.4322 22.4779 0 0 0 
93 1 85 31.6271 33.624 23.8901 0 0 0 
125 1 85 33.3026 33.4842 22.2959 0 0 0 
107 1 85 15.815 18.799 24.297 0 0 0 
11 1 90 20.6933 18.4425 24.5306 0 0 0 
12 1 90 22.115 18.4532 24.5303 0 0 0 
59 1 80 20.0091 17.1271 24.9412 0 0 0 
60 1 80 22.8353 17.0978 24.6295 0 0 0 
110 1 85 20.5404 16.6533 25.7653 0 0 0 
111 1 85 19.9748 16.4436 24.0935 0 0 0 
112 1 85 18.9956 17.2357 25.3082 0 0 0 
113 1 85 23.6402 17.0459 23.8983 0 0 0 
114 1 85 22.2249 16.2343 24.3813 0 0 0 
115 1 85 23.2409 16.9537 25.6307 0 0 0 
2 1 90 16.2316 20.689 23.2062 0 0 0 
3 1 92 17.649 20.7592 23.4581 0 0 0 
58 1 80 15.3802 19.4586 23.555 0 0 0 
72 1 80 17.8691 19.3809 25.4976 0 0 0 
103 1 85 13.4436 21.8998 23.1052 0 0 0 
109 1 85 14.4228 19.7538 23.9808 0 0 0 
10 1 81 18.3969 19.5432 24.0555 0 0 0 
7 1 81 19.8689 22.0751 23.4192 0 0 0 
8 1 92 20.6472 20.8146 23.886 0 0 0 
9 1 92 19.9441 19.6094 24.156 0 0 0 
13 1 92 22.8305 19.6869 24.3838 0 0 0 
14 1 92 22.0845 20.8522 24.0588 0 0 0 
15 1 90 22.8209 22.055 23.8975 0 0 0 
16 1 92 24.2244 22.1957 24.0379 0 0 0 
18 1 108 24.2587 19.804 24.527 0 0 0 
27 1 108 24.1682 24.71 24.0353 0 0 0 
65 1 109 23.0004 24.7428 24.7552 0 0 0 
71 1 80 20.0575 23.1567 24.5074 0 0 0 
74 1 91 22.282 22.923 23.5898 0 0 0 
17 1 92 24.9797 21.0246 24.2842 0 0 0 
19 1 90 26.4154 21.1334 24.2526 0 0 0 
21 1 92 26.2547 23.5092 23.5308 0 0 0 
22 1 92 24.867 23.4703 23.8674 0 0 0 
30 1 108 26.8131 24.7566 23.0736 0 0 0 
61 1 109 24.9831 18.7236 24.9272 0 0 0 
64 1 109 28.0963 24.8482 22.5931 0 0 0 
79 1 85 27.0145 19.6542 25.7123 0 0 0 
116 1 110 25.8774 19.0194 24.9886 0 0 0 
34 1 173 24.0037 27.2555 23.7473 0 0 0 
35 1 81 24.2762 29.7094 24.5683 0 0 0 
66 1 223 22.7725 27.2982 23.8285 0 0 0 
81 1 85 23.1913 29.7789 24.4871 0 0 0 
82 1 85 24.5086 29.539 25.6198 0 0 0 
124 1 110 22.3765 25.4166 24.5093 0 0 0 
28 1 92 24.7412 25.9405 23.625 0 0 0 
29 1 92 26.0486 25.9543 23.0936 0 0 0 
32 1 90 26.1242 28.5443 23.2592 0 0 0 
33 1 90 24.8033 28.5255 23.7836 0 0 0 
38 1 90 26.9732 29.6782 23.452 0 0 0 
39 1 461 28.2974 29.5949 23.1873 0 0 0 
40 1 90 29.1541 30.6279 23.3979 0 0 0 
49 1 90 30.5427 30.5037 23.0793 0 0 0 
94 1 91 30.3871 28.3966 22.6465 0 0 0 
123 1 110 28.3139 25.7126 22.2474 0 0 0 
50 1 90 31.0535 29.2446 22.6945 0 0 0 
51 1 90 32.4157 29.0673 22.3994 0 0 0 
52 1 90 33.3095 30.1537 22.4571 0 0 0 
69 1 80 34.7745 29.9063 22.141 0 0 0 
95 1 91 32.7607 28.0822 22.1307 0 0 0 
128 1 85 35.049 30.4089 21.2141 0 0 0 
129 1 85 34.9773 28.8422 22.0226 0 0 0 
41 1 90 28.6744 31.8386 23.964 0 0 0 
46 1 82 29.6585 32.9365 24.35 0 0 0 
86 1 85 26.0591 33.0617 25.6532 0 0 0 
87 1 85 28.1551 33.8329 26.3983 0 0 0 
91 1 85 30.0195 32.6306 25.3325 0 0 0 
48 1 90 31.4428 31.6069 23.1191 0 0 0 
53 1 90 32.8212 31.4409 22.7985 0 0 0 
68 1 80 33.7594 32.6433 22.8164 0 0 0 
126 1 85 34.712 32.4558 22.3274 0 0 0 
127 1 85 33.9573 32.9363 23.847 0 0 0 
130 1 85 35.4032 30.2771 22.9503 0 0 0 
303 2 85 37.7459 19.4637 44.6611 0 0 0 
213 2 81 40.2133 20.7927 44.1132 0 0 0 
214 2 222 39.86 22.2435 44.4309 0 0 0 
221 2 223 40.7141 23.1137 44.2389 0 0 0 
306 2 85 39.7076 20.5076 43.1902 0 0 0 
307 2 85 41.2854 20.7059 43.9412 0 0 0 
304 2 85 40.0549 18.8564 45.076 0 0 0 
220 2 109 38.5231 24.9154 44.4894 0 0 0 
315 2 85 28.8187 11.6863 48.6561 0 0 0 
197 2 92 31.3807 14.8036 48.1715 0 0 0 
198 2 92 30.7634 16.0911 48.1575 0 0 0 
199 2 90 29.3871 16.2065 48.4634 0 0 0 
200 2 90 28.619 15.0703 48.7802 0 0 0 
201 2 90 29.2198 13.7978 48.7943 0 0 0 
202 2 90 30.5921 13.6777 48.4926 0 0 0 
222 2 80 28.4015 12.5706 49.1376 0 0 0 
294 2 91 28.9096 17.1735 48.4551 0 0 0 
295 2 91 27.5719 15.1888 49.0103 0 0 0 
296 2 91 31.0677 12.7101 48.5014 0 0 0 
316 2 85 27.3714 12.6893 48.8014 0 0 0 
168 2 86 26.3598 26.7161 49.9134 0 0 0 
192 2 90 31.5489 17.2337 47.8329 0 0 0 
193 2 90 32.9097 17.0356 47.5316 0 0 0 
195 2 90 33.4257 15.7218 47.5732 0 0 0 
196 2 461 32.6926 14.6298 47.8859 0 0 0 
291 2 85 34.1813 17.9814 46.1447 0 0 0 
292 2 85 34.6763 18.1646 47.8198 0 0 0 
293 2 91 34.4651 15.5482 47.3434 0 0 0 
194 2 81 33.8186 18.1907 47.1494 0 0 0 
282 2 85 24.1293 23.7266 48.0242 0 0 0 
311 2 85 22.7017 24.6624 49.2315 0 0 0 
281 2 85 24.9278 21.3963 48.4119 0 0 0 
174 2 90 27.4499 24.4294 48.3204 0 0 0 
175 2 86 26.0435 24.6056 48.7149 0 0 0 
176 2 90 27.9701 23.0885 48.2308 0 0 0 
177 2 81 27.0376 21.8854 48.4153 0 0 0 
178 2 81 25.5756 22.2094 48.7371 0 0 0 
179 2 81 25.1888 23.5281 48.068 0 0 0 
181 2 90 30.1838 23.8875 47.5822 0 0 0 
182 2 90 29.3273 22.8188 47.8848 0 0 0 
183 2 81 29.8639 21.3847 47.8201 0 0 0 
184 2 90 31.3433 21.1496 47.4874 0 0 0 
191 2 81 30.9545 18.6421 47.806 0 0 0 
278 2 85 27.4389 21.2259 49.184 0 0 0 
279 2 85 27.0606 21.3257 47.4803 0 0 0 
280 2 85 25.4637 22.2943 49.8184 0 0 0 
283 2 85 25.4615 23.4837 47.0122 0 0 0 
285 2 85 29.6762 20.9287 48.7907 0 0 0 
286 2 85 29.2788 20.8408 47.08 0 0 0 
289 2 85 30.5243 18.8254 48.7888 0 0 0 
290 2 85 30.1416 18.6447 47.0813 0 0 0 
185 2 90 32.1866 22.2448 47.1825 0 0 0 
186 2 81 31.6335 23.6697 47.185 0 0 0 
187 2 90 33.5556 22.0248 46.8641 0 0 0 
188 2 90 34.0803 20.7111 46.8524 0 0 0 
189 2 90 33.2372 19.6076 47.1619 0 0 0 
190 2 90 31.8715 19.825 47.4775 0 0 0 
203 2 81 35.5563 20.4689 46.5299 0 0 0 
204 2 90 36.3922 21.6334 46.0072 0 0 0 
205 2 90 35.8517 22.932 46.0181 0 0 0 
206 2 81 34.4607 23.2157 46.5596 0 0 0 
207 2 90 36.6032 24.0048 45.5129 0 0 0 
210 2 90 37.7046 21.4177 45.5012 0 0 0 
287 2 85 31.7467 24.0763 46.1811 0 0 0 
288 2 85 32.2473 24.2731 47.8523 0 0 0 
297 2 85 36.027 20.0916 47.4369 0 0 0 
298 2 85 35.5984 19.6812 45.7804 0 0 0 
299 2 85 33.9583 23.8477 45.829 0 0 0 
300 2 85 34.5639 23.7984 47.4742 0 0 0 
302 2 85 37.9993 19.47 46.3884 0 0 0 
208 2 108 37.8952 23.8084 44.9919 0 0 0 
209 2 90 38.4724 22.5072 44.9836 0 0 0 
211 2 81 38.259 19.9911 45.4665 0 0 0 
212 2 81 39.7733 19.8918 45.2668 0 0 0 
305 2 85 40.2804 20.1931 46.1846 0 0 0 
132 2 81 5.18549 30.4178 49.2775 0 0 0 
262 2 85 5.08603 30.2814 48.2001 0 0 0 
133 2 90 6.57128 30.9186 49.5808 0 0 0 
138 2 92 8.97811 30.8587 49.8514 0 0 0 
139 2 90 7.77205 30.1904 49.5342 0 0 0 
140 2 90 10.1975 30.1504 49.819 0 0 0 
265 2 91 7.77179 29.1454 49.2625 0 0 0 
266 2 91 10.209 29.1036 49.5545 0 0 0 
269 2 91 12.6429 29.0451 49.8212 0 0 0 
169 2 86 25.6319 25.5712 49.6237 0 0 0 
171 2 86 27.379 27.3219 49.247 0 0 0 
172 2 222 27.9085 26.8912 47.9696 0 0 0 
173 2 90 28.3444 25.4708 47.972 0 0 0 
180 2 90 29.6808 25.198 47.6119 0 0 0 
218 2 96 28.0416 28.449 49.6968 0 0 0 
219 2 223 28.2093 27.6396 47.031 0 0 0 
284 2 91 30.3346 26.0185 47.3559 0 0 0 
301 2 91 36.1567 24.9871 45.5252 0 0 0 
314 2 110 37.9544 25.6649 44.5424 0 0 0 
135 2 81 5.15522 32.8167 49.8807 0 0 0 
260 2 85 3.38897 31.6991 49.1622 0 0 0 
263 2 85 5.04758 33.4389 48.9914 0 0 0 
131 2 81 4.26882 31.5531 49.789 0 0 0 
134 2 90 6.55633 32.2646 49.922 0 0 0 
261 2 85 4.98393 29.4667 49.7713 0 0 0 
217 2 80 23.2099 24.4077 50.1608 0 0 0 
242 2 109 24.1285 23.0767 52.4609 0 0 0 
258 2 110 24.3439 22.2783 52.9269 0 0 0 
310 2 85 23.5715 23.3884 50.0951 0 0 0 
312 2 85 22.4436 24.3937 50.9357 0 0 0 
244 2 223 25.1959 21.8358 54.5503 0 0 0 
225 2 108 24.9439 24.1355 52.7656 0 0 0 
226 2 92 25.7568 24.0992 53.9407 0 0 0 
232 2 173 25.7468 22.8952 54.8613 0 0 0 
560 3 91 52.4286 46.9452 75.0242 0 0 0 
141 2 92 11.4092 30.8011 50.127 0 0 0 
146 2 92 13.8419 30.7438 50.3848 0 0 0 
147 2 90 12.6278 30.0921 50.0856 0 0 0 
148 2 90 15.0552 30.0284 50.3368 0 0 0 
149 2 92 16.2854 30.6454 50.6313 0 0 0 
155 2 461 17.424 29.9094 50.5733 0 0 0 
318 2 91 15.0664 28.9826 50.071 0 0 0 
154 2 90 18.5951 30.5267 50.846 0 0 0 
156 2 90 19.8987 30.0187 50.8577 0 0 0 
159 2 90 22.1685 30.7858 51.3158 0 0 0 
160 2 92 22.6468 29.4789 51.0623 0 0 0 
161 2 92 21.744 28.4374 50.6981 0 0 0 
162 2 90 20.3555 28.7143 50.5855 0 0 0 
163 2 90 22.2395 27.1285 50.476 0 0 0 
164 2 90 23.6242 26.8443 50.6256 0 0 0 
165 2 90 24.4866 27.8863 50.9878 0 0 0 
166 2 90 24.0231 29.1989 51.1958 0 0 0 
170 2 84 24.3026 25.4461 50.5137 0 0 0 
274 2 91 19.6411 27.9528 50.3149 0 0 0 
275 2 91 21.536 26.3561 50.2133 0 0 0 
276 2 91 24.7167 29.9739 51.481 0 0 0 
167 2 82 25.9155 27.4512 51.2037 0 0 0 
456 3 90 50.5552 47.8923 75.1777 0 0 0 
223 2 90 25.8434 26.3451 52.2515 0 0 0 
224 2 90 24.994 25.2683 51.9079 0 0 0 
227 2 92 26.6015 25.2066 54.2646 0 0 0 
228 2 108 26.6341 26.3415 53.4121 0 0 0 
229 2 173 27.4584 25.1531 55.5087 0 0 0 
241 2 109 27.4257 27.4354 53.6637 0 0 0 
257 2 110 28.0884 27.2824 54.3261 0 0 0 
277 2 85 26.5204 28.2908 51.5346 0 0 0 
313 2 97 27.6571 28.6191 50.5402 0 0 0 
243 2 223 28.3355 25.9917 55.7306 0 0 0 
259 2 85 3.91845 31.2966 50.7894 0 0 0 
264 2 85 4.92737 33.4144 50.7637 0 0 0 
136 2 108 7.74197 32.9532 50.2341 0 0 0 
137 2 92 8.96857 32.2408 50.2007 0 0 0 
142 2 92 11.4043 32.1736 50.472 0 0 0 
143 2 90 10.1875 32.8861 50.5067 0 0 0 
215 2 109 7.67479 34.2789 50.5521 0 0 0 
267 2 91 10.1888 33.9332 50.7687 0 0 0 
308 2 110 6.78453 34.579 50.4839 0 0 0 
144 2 90 12.6192 32.822 50.7758 0 0 0 
145 2 92 13.8431 32.116 50.7321 0 0 0 
150 2 92 16.2837 32.0318 50.9759 0 0 0 
151 2 108 15.0681 32.7589 51.0243 0 0 0 
152 2 90 17.5226 32.6595 51.2633 0 0 0 
216 2 109 15.0904 34.0885 51.3528 0 0 0 
268 2 91 12.6196 33.8685 51.0396 0 0 0 
270 2 91 17.6099 33.6967 51.5319 0 0 0 
309 2 110 15.996 34.3075 51.5072 0 0 0 
157 2 90 20.788 31.0367 51.2122 0 0 0 
153 2 90 18.6868 31.88 51.1913 0 0 0 
158 2 81 20.1023 32.3675 51.4588 0 0 0 
271 2 85 20.4164 33.1227 50.7398 0 0 0 
272 2 85 20.2322 32.7097 52.4847 0 0 0 
273 2 91 22.8456 31.5773 51.5932 0 0 0 
245 2 85 25.1065 21.6373 57.2242 0 0 0 
255 2 85 24.9506 21.46 59.8971 0 0 0 
230 2 90 27.2235 24.0727 56.5242 0 0 0 
231 2 90 26.3977 22.9845 56.212 0 0 0 
233 2 81 26.168 21.8897 57.2394 0 0 0 
234 2 86 26.5416 22.1904 58.6859 0 0 0 
235 2 86 27.3303 23.2602 58.9916 0 0 0 
236 2 81 27.884 24.1556 57.8891 0 0 0 
237 2 81 27.6952 23.5804 60.4409 0 0 0 
238 2 81 26.8434 22.8648 61.4928 0 0 0 
239 2 81 26.7234 21.3937 61.1311 0 0 0 
240 2 81 26.0165 21.2602 59.7797 0 0 0 
246 2 85 26.7011 20.9935 56.9196 0 0 0 
247 2 85 28.9489 23.9491 57.7748 0 0 0 
249 2 85 28.7466 23.3253 60.5785 0 0 0 
250 2 85 27.6179 24.6572 60.5949 0 0 0 
251 2 85 25.8516 23.3175 61.5397 0 0 0 
253 2 85 26.1718 20.8519 61.9002 0 0 0 
254 2 85 27.716 20.9438 61.0798 0 0 0 
256 2 85 26.1009 20.2297 59.4327 0 0 0 
248 2 85 27.8076 25.1885 58.2325 0 0 0 
252 2 85 27.2892 22.9847 62.4809 0 0 0 
500 3 85 31.1465 24.4135 73.17 0 0 0 
551 3 85 31.7585 24.4254 70.8375 0 0 0 
360 3 82 31.8769 25.1439 73.5215 0 0 0 
361 3 81 32.9896 24.3744 74.2216 0 0 0 
437 3 80 32.6249 25.0423 71.075 0 0 0 
502 3 85 33.5636 23.7777 73.5142 0 0 0 
552 3 85 33.4706 24.3797 71.2559 0 0 0 
553 3 85 32.8549 25.6341 70.1884 0 0 0 
320 3 81 20.7243 27.8281 74.1432 0 0 0 
321 3 82 21.6815 27.7307 75.3425 0 0 0 
322 3 82 22.5285 29.0311 75.5013 0 0 0 
323 3 81 21.826 30.2305 74.8162 0 0 0 
324 3 122 20.4169 30.1251 74.9903 0 0 0 
325 3 82 24.0018 28.8132 75.0564 0 0 0 
328 3 81 22.5382 26.4477 75.27 0 0 0 
468 3 85 20.1146 26.9295 74.0511 0 0 0 
470 3 85 21.0613 27.6603 76.2367 0 0 0 
471 3 85 22.5609 29.2538 76.569 0 0 0 
472 3 85 22.0687 30.2803 73.7535 0 0 0 
473 3 85 22.1676 31.1649 75.2622 0 0 0 
478 3 85 21.9238 25.5776 75.4991 0 0 0 
479 3 85 22.9139 26.3009 74.2569 0 0 0 
482 3 85 25.7554 29.878 74.3856 0 0 0 
319 3 81 19.8245 29.0762 74.2297 0 0 0 
359 3 81 31.145 26.0224 74.5511 0 0 0 
466 3 85 18.8741 28.8259 74.7007 0 0 0 
467 3 85 19.5954 29.4383 73.2268 0 0 0 
469 3 85 21.3216 27.8876 73.2323 0 0 0 
474 3 85 23.9495 28.4675 74.0233 0 0 0 
498 3 85 30.2021 26.3004 74.0847 0 0 0 
547 3 85 31.5138 26.5974 71.9933 0 0 0 
499 3 85 31.6988 26.9454 74.7061 0 0 0 
435 3 82 32.3456 25.9525 72.2826 0 0 0 
436 3 80 33.5491 26.8768 72.5533 0 0 0 
501 3 85 33.6879 25.0682 74.6932 0 0 0 
548 3 85 33.7759 27.4874 71.6791 0 0 0 
549 3 85 34.4493 26.3152 72.8011 0 0 0 
550 3 85 33.3585 27.5694 73.3742 0 0 0 
513 3 85 43.2079 30.2426 76.4729 0 0 0 
515 3 85 45.6158 30.3985 76.0483 0 0 0 
394 3 81 45.02 31.3041 75.9304 0 0 0 
486 3 85 27.9932 34.063 74.8085 0 0 0 
509 3 85 43.6054 33.887 75.078 0 0 0 
510 3 85 42.3156 32.109 75.3639 0 0 0 
419 3 90 42.7789 37.4127 75.62 0 0 0 
537 3 91 43.3998 36.544 75.5424 0 0 0 
399 3 81 47.7678 33.8647 75.8869 0 0 0 
400 3 731 46.7959 32.8868 75.3954 0 0 0 
514 3 85 44.7923 31.3886 74.8668 0 0 0 
518 3 85 45.4799 35.3995 75.5102 0 0 0 
523 3 85 48.236 34.3336 75.0205 0 0 0 
524 3 740 46.2586 33.3067 74.6474 0 0 0 
543 3 85 47.1392 36.7877 74.2832 0 0 0 
545 3 85 44.8358 36.9467 73.7376 0 0 0 
528 3 85 31.1011 38.1823 74.6664 0 0 0 
531 3 85 30.4732 40.8419 75.8768 0 0 0 
408 3 81 32.0042 38.7532 74.883 0 0 0 
409 3 81 31.8693 40.2017 74.3725 0 0 0 
410 3 81 31.4377 41.1672 75.485 0 0 0 
527 3 85 32.8013 38.2637 74.3213 0 0 0 
529 3 85 31.1748 40.2368 73.5329 0 0 0 
530 3 85 32.8365 40.5268 73.9861 0 0 0 
532 3 85 31.2866 42.1693 75.0845 0 0 0 
418 3 90 43.4413 38.6365 75.3902 0 0 0 
422 3 92 43.3374 41.1013 75.2651 0 0 0 
423 3 82 44.9428 38.6226 75.1324 0 0 0 
424 3 82 45.6393 40.0028 75.2594 0 0 0 
425 3 90 44.7435 41.2246 75.1534 0 0 0 
426 3 82 46.8657 40.1745 74.3429 0 0 0 
427 3 81 47.695 38.8755 74.2896 0 0 0 
428 3 81 46.8658 37.6932 73.7399 0 0 0 
429 3 81 45.34 37.9092 73.8269 0 0 0 
430 3 92 45.3585 42.5021 75.0575 0 0 0 
433 3 90 47.5708 41.4932 74.6556 0 0 0 
434 3 92 46.769 42.6318 74.9082 0 0 0 
452 3 92 48.7978 44.0378 74.897 0 0 0 
453 3 92 47.3827 43.9096 74.977 0 0 0 
457 3 90 48.9716 41.6259 74.593 0 0 0 
458 3 92 49.6044 42.8829 74.7479 0 0 0 
540 3 85 46.4906 40.3285 73.3293 0 0 0 
541 3 85 48.0536 38.6405 75.2924 0 0 0 
542 3 85 48.574 38.989 73.657 0 0 0 
544 3 85 47.1293 37.5061 72.6988 0 0 0 
546 3 85 44.9935 38.5038 72.981 0 0 0 
562 3 91 49.5516 40.7458 74.3863 0 0 0 
460 3 90 51.0192 43.0058 74.712 0 0 0 
461 3 81 51.9042 41.7579 74.7041 0 0 0 
463 3 81 54.009 43.1369 74.7692 0 0 0 
564 3 85 52.0589 41.4335 73.6739 0 0 0 
567 3 85 54.4286 42.7983 73.8219 0 0 0 
464 3 222 53.1416 44.3621 74.4671 0 0 0 
465 3 223 53.7026 45.3471 73.9846 0 0 0 
459 3 90 51.6394 44.2895 74.7112 0 0 0 
355 3 81 29.9977 24.081 78.3428 0 0 0 
494 3 85 30.133 23.9602 79.4175 0 0 0 
495 3 85 29.1125 23.5078 78.0667 0 0 0 
356 3 81 31.2179 23.5529 77.6095 0 0 0 
357 3 86 31.4506 24.1929 76.2566 0 0 0 
362 3 81 32.3729 23.4674 75.2825 0 0 0 
496 3 85 31.1391 22.4719 77.4964 0 0 0 
503 3 85 33.1777 23.0015 75.8507 0 0 0 
504 3 85 31.8101 22.6594 74.8149 0 0 0 
497 3 85 32.1114 23.7431 78.2048 0 0 0 
326 3 82 24.6814 27.6895 75.8931 0 0 0 
327 3 81 23.7297 26.5237 76.2299 0 0 0 
329 3 122 25.1606 28.1619 77.1537 0 0 0 
332 3 81 24.8934 30.0732 75.023 0 0 0 
476 3 85 23.342 26.6544 77.2411 0 0 0 
477 3 85 24.2864 25.5867 76.2382 0 0 0 
481 3 85 24.5161 30.7348 77.0148 0 0 0 
483 3 85 24.3841 30.9138 74.5552 0 0 0 
331 3 82 25.389 30.458 76.4233 0 0 0 
330 3 82 26.0599 29.2746 77.1301 0 0 0 
335 3 90 28.3725 30.1909 76.423 0 0 0 
336 3 82 27.4366 28.9653 76.4976 0 0 0 
337 3 92 29.8037 30.0433 76.4714 0 0 0 
338 3 92 30.6435 31.19 76.4049 0 0 0 
348 3 86 28.2666 27.8998 77.1802 0 0 0 
349 3 82 29.5581 27.4991 76.5138 0 0 0 
350 3 90 30.4133 28.7592 76.6043 0 0 0 
351 3 86 30.0887 26.0747 76.8362 0 0 0 
352 3 86 29.7076 25.5281 78.0268 0 0 0 
353 3 81 28.9292 26.3869 79.0099 0 0 0 
354 3 86 27.9432 27.3097 78.3409 0 0 0 
358 3 86 30.8798 25.3956 75.9376 0 0 0 
475 3 85 25.5212 27.2951 75.321 0 0 0 
480 3 85 26.2279 29.5721 78.1658 0 0 0 
484 3 85 27.2921 28.6405 75.4697 0 0 0 
490 3 85 29.2442 27.4691 75.4761 0 0 0 
491 3 85 29.6151 26.9648 79.6302 0 0 0 
492 3 85 28.3623 25.7315 79.6695 0 0 0 
493 3 85 26.9934 27.4657 78.8283 0 0 0 
347 3 92 32.0629 31.0941 76.5119 0 0 0 
363 3 90 32.6194 29.8066 76.6976 0 0 0 
364 3 90 31.8091 28.6624 76.7436 0 0 0 
366 3 90 35.0639 31.1563 76.7067 0 0 0 
367 3 144 34.343 29.5682 76.8428 0 0 0 
368 3 90 36.4605 31.2083 76.7459 0 0 0 
505 3 91 32.2837 27.7012 76.8609 0 0 0 
506 3 91 37.0116 30.2853 76.8427 0 0 0 
393 3 81 43.699 31.1898 76.6968 0 0 0 
438 3 96 41.0264 31.3272 77.7187 0 0 0 
512 3 85 43.8962 31.189 77.7692 0 0 0 
554 3 97 40.1833 31.5412 78.0914 0 0 0 
489 3 89 24.7674 33.0432 76.5492 0 0 0 
333 3 86 26.3277 31.66 76.3892 0 0 0 
334 3 90 27.7773 31.4803 76.3127 0 0 0 
339 3 92 30.0519 32.455 76.2129 0 0 0 
340 3 90 28.6456 32.594 76.1668 0 0 0 
341 3 81 28.0467 33.9649 75.8929 0 0 0 
342 3 81 26.6561 34.1842 76.4919 0 0 0 
343 3 87 25.8359 32.9128 76.4746 0 0 0 
344 3 119 30.8199 33.5787 76.0319 0 0 0 
485 3 85 28.712 34.7558 76.239 0 0 0 
487 3 85 26.1355 34.9731 75.9499 0 0 0 
488 3 85 26.7446 34.5038 77.5301 0 0 0 
345 3 92 32.1753 33.498 76.2447 0 0 0 
346 3 92 32.86 32.2798 76.4525 0 0 0 
365 3 92 34.2877 32.3343 76.5595 0 0 0 
369 3 92 37.128 32.4365 76.6598 0 0 0 
370 3 92 36.4029 33.6385 76.5487 0 0 0 
371 3 92 34.9802 33.5963 76.5033 0 0 0 
372 3 92 37.12 34.859 76.4391 0 0 0 
380 3 92 34.2664 34.8213 76.386 0 0 0 
381 3 90 32.8666 34.7149 76.2041 0 0 0 
382 3 92 36.3954 36.0746 76.3494 0 0 0 
383 3 92 34.9635 36.0809 76.3917 0 0 0 
385 3 92 37.125 37.2869 76.2241 0 0 0 
401 3 90 34.2989 37.3522 76.4518 0 0 0 
407 3 119 32.9487 37.4444 76.7101 0 0 0 
508 3 91 32.24 35.5529 75.9744 0 0 0 
373 3 92 38.5536 34.8607 76.445 0 0 0 
374 3 92 39.2654 33.6439 76.6407 0 0 0 
375 3 90 38.5275 32.4421 76.6933 0 0 0 
376 3 90 40.682 33.6774 76.7809 0 0 0 
377 3 90 41.3912 34.8673 76.4999 0 0 0 
378 3 92 40.7076 36.0865 76.1985 0 0 0 
379 3 92 39.2764 36.0751 76.26 0 0 0 
384 3 92 38.5472 37.2855 76.1387 0 0 0 
386 3 92 41.3866 37.3189 75.8906 0 0 0 
389 3 119 42.7591 34.8264 76.6868 0 0 0 
390 3 82 43.4976 33.7143 76.1497 0 0 0 
391 3 82 42.7578 32.3572 76.33 0 0 0 
392 3 100 41.5907 32.5526 77.2997 0 0 0 
507 3 91 38.996 31.477 76.7061 0 0 0 
511 3 85 42.0115 32.9486 78.2263 0 0 0 
395 3 82 45.8173 32.5254 76.4165 0 0 0 
522 3 85 48.561 33.3468 76.4271 0 0 0 
396 3 82 44.9117 33.7436 76.7887 0 0 0 
397 3 81 45.6322 35.0857 76.5418 0 0 0 
398 3 81 47.1357 34.9404 76.7977 0 0 0 
516 3 85 46.3653 32.2247 77.3118 0 0 0 
517 3 85 44.7537 33.6741 77.8662 0 0 0 
519 3 85 45.2029 35.8654 77.1716 0 0 0 
520 3 85 47.2775 34.6607 77.8425 0 0 0 
521 3 85 47.636 35.8991 76.6586 0 0 0 
526 3 85 31.3379 38.649 76.9261 0 0 0 
402 3 90 35.0326 38.5575 76.3298 0 0 0 
403 3 92 36.4277 38.517 76.1786 0 0 0 
404 3 119 34.4121 39.7902 76.3485 0 0 0 
405 3 82 33.1205 39.8381 76.9312 0 0 0 
406 3 82 32.2928 38.6633 76.3996 0 0 0 
411 3 81 32.4721 41.2084 76.6292 0 0 0 
413 3 90 37.1271 39.7254 76.0197 0 0 0 
525 3 85 33.2524 39.7251 78.0085 0 0 0 
533 3 85 31.9817 41.5814 77.5283 0 0 0 
534 3 85 33.2581 41.9278 76.3972 0 0 0 
535 3 91 36.5901 40.6603 75.9832 0 0 0 
387 3 92 40.6495 38.5305 75.8138 0 0 0 
388 3 92 39.2414 38.5091 75.9563 0 0 0 
412 3 92 38.521 39.7247 75.8943 0 0 0 
414 3 92 41.3113 39.7755 75.5939 0 0 0 
415 3 92 40.5757 40.9816 75.5587 0 0 0 
416 3 90 39.1836 40.9486 75.7095 0 0 0 
417 3 92 42.7095 39.8405 75.4109 0 0 0 
420 3 119 41.1635 42.2076 75.3559 0 0 0 
421 3 92 42.5377 42.2708 75.2816 0 0 0 
432 3 92 43.1475 43.5458 75.251 0 0 0 
536 3 91 38.6248 41.8704 75.6677 0 0 0 
431 3 92 44.5563 43.6629 75.1567 0 0 0 
538 3 85 45.3492 38.0074 75.9367 0 0 0 
539 3 85 46.0019 40.0456 76.2877 0 0 0 
462 3 81 53.2344 41.9912 75.4184 0 0 0 
563 3 85 51.4255 40.9357 75.234 0 0 0 
565 3 85 53.8323 41.0797 75.4062 0 0 0 
566 3 85 53.0441 42.2238 76.4674 0 0 0 
568 3 85 54.847 43.4365 75.3976 0 0 0 
439 3 90 42.3567 44.713 75.3341 0 0 0 
440 3 90 42.9566 45.9847 75.3587 0 0 0 
555 3 91 41.2813 44.6345 75.3982 0 0 0 
556 3 91 42.3322 46.8615 75.4391 0 0 0 
441 3 90 44.3579 46.1037 75.2957 0 0 0 
442 3 92 45.1629 44.9427 75.1817 0 0 0 
443 3 92 46.5732 45.0625 75.1172 0 0 0 
444 3 92 47.1724 46.3413 75.1858 0 0 0 
445 3 92 46.3599 47.4971 75.3127 0 0 0 
446 3 90 44.9581 47.375 75.3577 0 0 0 
447 3 90 46.9517 48.772 75.3959 0 0 0 
448 3 90 48.351 48.9 75.3545 0 0 0 
449 3 92 49.1609 47.755 75.2188 0 0 0 
450 3 92 48.582 46.4669 75.1288 0 0 0 
451 3 92 49.4063 45.3172 74.9784 0 0 0 
557 3 91 44.3403 48.2553 75.4498 0 0 0 
558 3 91 46.3346 49.6526 75.4942 0 0 0 
559 3 91 48.7982 49.88 75.4227 0 0 0 
561 3 91 51.012 48.8668 75.2606 0 0 0 
454 3 92 50.8237 45.4531 74.8942 0 0 0 
455 3 90 51.3691 46.7595 75.024 0 0 0 
317 2 85 28.4032 12.4141 50.216 0 0 0 
ITEM: TIMESTEP
2000
ITEM: NUMBER OF ATOMS
568
ITEM: BOX BOUNDS pp pp pp
0.0000000000000000e+00 1.0000000000000000e+02
0.0000000000000000e+00 1.0000000000000000e+02
0.0000000000000000e+00 1.0000000000000000e+02
ITEM: ATOMS id mol type x y z ix iy iz 
73 1 80 17.6103 18.358 20.5855 0 0 0 
107 1 85 15.3319 18.697 21.6484 0 0 0 
11 1 90 20.1752 18.3608 22.1133 0 0 0 
12 1 90 21.5938 18.3766 22.2091 0 0 0 
59 1 80 19.478 17.0146 22.3751 0 0 0 
60 1 80 22.3188 17.0212 22.264 0 0 0 
111 1 85 19.5222 16.393 21.4818 0 0 0 
112 1 85 18.4366 17.0829 22.6642 0 0 0 
113 1 85 23.1663 17.0232 21.5807 0 0 0 
114 1 85 21.7349 16.1713 21.9233 0 0 0 
61 1 109 24.4361 18.6292 22.8007 0 0 0 
1 1 90 15.0843 21.8459 20.2885 0 0 0 
5 1 90 17.1505 23.1514 20.4949 0 0 0 
6 1 90 15.7649 23.0803 20.1841 0 0 0 
54 1 81 14.9938 24.3385 19.7571 0 0 0 
55 1 80 14.9735 24.5817 18.2397 0 0 0 
56 1 80 13.6054 21.7445 19.8975 0 0 0 
97 1 85 13.9765 24.2922 20.1413 0 0 0 
98 1 85 14.529 23.7412 17.7086 0 0 0 
99 1 85 15.983 24.7064 17.8493 0 0 0 
101 1 85 13.3681 20.7767 19.4601 0 0 0 
102 1 85 13.3143 22.4655 19.1393 0 0 0 
108 1 85 14.7382 18.9576 20.0246 0 0 0 
57 1 80 17.8051 24.5391 20.3872 0 0 0 
4 1 92 17.874 21.9767 20.9162 0 0 0 
104 1 85 17.5747 25.0057 19.4329 0 0 0 
2 1 90 15.7619 20.7026 20.7847 0 0 0 
3 1 92 17.1719 20.7502 21.0793 0 0 0 
58 1 80 14.907 19.4414 20.9855 0 0 0 
72 1 80 17.3084 19.2023 22.9975 0 0 0 
103 1 85 12.9801 21.8947 20.7768 0 0 0 
109 1 85 13.9466 19.6894 21.4333 0 0 0 
10 1 81 17.9023 19.4901 21.6005 0 0 0 
70 1 80 20.0473 22.5138 19.8783 0 0 0 
105 1 85 18.885 24.5693 20.4594 0 0 0 
7 1 81 19.3927 22.0585 21.2052 0 0 0 
8 1 92 20.1517 20.772 21.6314 0 0 0 
9 1 92 19.4417 19.5506 21.7834 0 0 0 
13 1 92 22.3061 19.6206 22.1989 0 0 0 
14 1 92 21.5766 20.8008 21.8887 0 0 0 
15 1 90 22.3197 22.0084 21.8165 0 0 0 
16 1 92 23.706 22.1484 22.0767 0 0 0 
18 1 108 23.7168 19.7353 22.465 0 0 0 
27 1 108 23.6564 24.6644 22.0314 0 0 0 
65 1 109 22.438 24.7197 22.6599 0 0 0 
71 1 80 19.5532 23.0816 22.3533 0 0 0 
74 1 91 21.8026 22.8808 21.4857 0 0 0 
17 1 92 24.4373 20.9756 22.3789 0 0 0 
22 1 92 24.3638 23.4214 21.9618 0 0 0 
80 1 85 26.8308 19.1834 22.5109 0 0 0 
20 1 90 26.5284 22.2755 22.096 0 0 0 
23 1 81 28.0692 22.2869 22.0837 0 0 0 
24 1 82 28.8151 21.0211 22.516 0 0 0 
25 1 82 28.1051 20.3954 23.7112 0 0 0 
26 1 81 26.7095 20.0009 23.2237 0 0 0 
63 1 80 30.3111 21.2798 22.7555 0 0 0 
75 1 85 28.4018 22.4882 21.0663 0 0 0 
76 1 85 28.3962 23.118 22.7101 0 0 0 
77 1 85 28.75 20.311 21.6896 0 0 0 
120 1 85 30.7889 21.6463 21.8467 0 0 0 
122 1 85 30.4702 22.0304 23.5298 0 0 0 
19 1 90 25.859 21.1013 22.5566 0 0 0 
21 1 92 25.7784 23.4558 21.7692 0 0 0 
30 1 108 26.3744 24.6804 21.3038 0 0 0 
64 1 109 27.6929 24.7459 20.9252 0 0 0 
116 1 110 25.3176 18.9329 22.9505 0 0 0 
121 1 85 30.8261 20.3686 23.0587 0 0 0 
96 1 85 15.3887 25.2194 20.2582 0 0 0 
100 1 85 14.4056 25.4781 17.995 0 0 0 
106 1 85 17.436 25.1751 21.1905 0 0 0 
36 1 81 24.3679 30.98 21.7601 0 0 0 
34 1 173 23.5143 27.1939 21.6134 0 0 0 
35 1 81 23.7283 29.7018 22.2818 0 0 0 
66 1 223 22.2805 27.2341 21.6226 0 0 0 
81 1 85 22.647 29.7461 22.1509 0 0 0 
124 1 110 21.8293 25.3717 22.3305 0 0 0 
28 1 92 24.2604 25.8778 21.6149 0 0 0 
33 1 90 24.3061 28.4697 21.6154 0 0 0 
37 1 90 25.8842 30.8754 21.6678 0 0 0 
31 1 173 26.1925 27.1529 20.6378 0 0 0 
67 1 223 27.0313 27.073 19.734 0 0 0 
29 1 92 25.6053 25.8696 21.1865 0 0 0 
32 1 90 25.6554 28.4664 21.1706 0 0 0 
38 1 90 26.4739 29.6305 21.3041 0 0 0 
39 1 461 27.8092 29.5487 21.1082 0 0 0 
40 1 90 28.6358 30.6193 21.2213 0 0 0 
49 1 90 30.0345 30.4919 20.9555 0 0 0 
94 1 91 29.9408 28.3432 20.7936 0 0 0 
123 1 110 27.9303 25.5802 20.523 0 0 0 
50 1 90 30.5848 29.2082 20.7458 0 0 0 
51 1 90 31.9565 29.0329 20.4974 0 0 0 
52 1 90 32.8197 30.1425 20.4252 0 0 0 
69 1 80 34.2949 29.898 20.1594 0 0 0 
95 1 91 32.3323 28.0317 20.3618 0 0 0 
128 1 85 34.5688 30.2855 19.1786 0 0 0 
129 1 85 34.5275 28.8336 20.1804 0 0 0 
130 1 85 34.902 30.3875 20.9205 0 0 0 
84 1 85 24.0088 31.1841 20.7516 0 0 0 
83 1 85 24.0344 31.8064 22.3799 0 0 0 
42 1 90 26.7177 32.0103 21.8579 0 0 0 
43 1 81 26.1367 33.3684 22.2605 0 0 0 
44 1 81 27.1576 34.4006 22.7555 0 0 0 
45 1 81 28.3772 34.4154 21.8385 0 0 0 
47 1 81 30.2974 33.0043 20.9916 0 0 0 
85 1 85 25.5999 33.759 21.3965 0 0 0 
89 1 85 29.0764 35.1906 22.1499 0 0 0 
90 1 85 28.0726 34.6435 20.8167 0 0 0 
92 1 85 30.0297 33.3199 19.9837 0 0 0 
41 1 90 28.111 31.8767 21.6187 0 0 0 
46 1 82 29.0584 33.0402 21.8857 0 0 0 
91 1 85 29.4039 32.8689 22.9057 0 0 0 
93 1 85 31.0206 33.7188 21.3785 0 0 0 
125 1 85 32.7252 33.417 19.8204 0 0 0 
48 1 90 30.9044 31.6158 20.8693 0 0 0 
53 1 90 32.2918 31.4487 20.5904 0 0 0 
68 1 80 33.1955 32.6705 20.4595 0 0 0 
126 1 85 34.1634 32.4482 20.0176 0 0 0 
127 1 85 33.3624 33.1089 21.4428 0 0 0 
110 1 85 19.95 16.4897 23.2043 0 0 0 
115 1 85 22.6651 16.8141 23.2762 0 0 0 
62 1 80 28.0608 21.2766 24.9764 0 0 0 
117 1 85 29.0603 21.5304 25.3267 0 0 0 
118 1 85 27.5531 20.7615 25.7919 0 0 0 
78 1 85 28.6306 19.4782 23.9807 0 0 0 
119 1 85 27.523 22.2094 24.8038 0 0 0 
79 1 85 26.185 19.6266 24.1043 0 0 0 
82 1 85 23.9183 29.6147 23.352 0 0 0 
88 1 85 26.6994 35.3872 22.8082 0 0 0 
86 1 85 25.4132 33.2329 23.0614 0 0 0 
87 1 85 27.4718 34.1411 23.7673 0 0 0 
306 2 85 40.0066 19.5614 44.5733 0 0 0 
315 2 85 28.5512 11.1406 49.5903 0 0 0 
222 2 80 28.1399 12.0462 50.036 0 0 0 
198 2 92 30.5971 15.4893 49.0209 0 0 0 
199 2 90 29.2067 15.6333 49.237 0 0 0 
200 2 90 28.408 14.522 49.5646 0 0 0 
201 2 90 28.9917 13.2468 49.68 0 0 0 
202 2 90 30.3779 13.099 49.4683 0 0 0 
294 2 91 28.7425 16.6029 49.1517 0 0 0 
295 2 91 27.3507 14.6614 49.7252 0 0 0 
296 2 91 30.8404 12.1291 49.5564 0 0 0 
316 2 85 27.1209 12.1742 49.6712 0 0 0 
191 2 81 30.8364 18.0168 48.5488 0 0 0 
289 2 85 30.3598 18.2627 49.4964 0 0 0 
290 2 85 30.0601 17.9822 47.7856 0 0 0 
197 2 92 31.1977 14.199 49.1382 0 0 0 
192 2 90 31.413 16.6071 48.6875 0 0 0 
193 2 90 32.7878 16.3819 48.4861 0 0 0 
195 2 90 33.2858 15.0675 48.6258 0 0 0 
196 2 461 32.5222 13.9986 48.9433 0 0 0 
291 2 85 34.1803 17.2381 47.16 0 0 0 
292 2 85 34.5288 17.5244 48.8571 0 0 0 
293 2 91 34.3361 14.8746 48.4736 0 0 0 
194 2 81 33.7327 17.5103 48.1143 0 0 0 
304 2 85 40.1412 18.0388 46.5886 0 0 0 
282 2 85 24.0431 23.1623 48.1656 0 0 0 
311 2 85 22.6021 24.1885 49.2933 0 0 0 
281 2 85 24.8095 20.8503 48.7071 0 0 0 
174 2 90 27.3685 23.8461 48.4864 0 0 0 
175 2 86 25.9549 24.0629 48.8315 0 0 0 
176 2 90 27.8782 22.499 48.5097 0 0 0 
177 2 81 26.9248 21.3191 48.7352 0 0 0 
178 2 81 25.4581 21.6761 48.9966 0 0 0 
179 2 81 25.0995 22.9546 48.2383 0 0 0 
181 2 90 30.1265 23.2373 47.9034 0 0 0 
182 2 90 29.247 22.1981 48.2425 0 0 0 
183 2 81 29.7696 20.7586 48.2952 0 0 0 
278 2 85 27.2934 20.7012 49.5534 0 0 0 
279 2 85 26.9703 20.7047 47.8359 0 0 0 
263 2 85 4.90088 33.0187 49.1095 0 0 0 
283 2 85 25.3909 22.8409 47.1927 0 0 0 
285 2 85 29.5189 20.362 49.2769 0 0 0 
286 2 85 29.2246 20.1766 47.5537 0 0 0 
184 2 90 31.2643 20.4945 48.0728 0 0 0 
185 2 90 32.134 21.5618 47.7431 0 0 0 
186 2 81 31.5916 22.9833 47.5929 0 0 0 
187 2 90 33.5201 21.3156 47.541 0 0 0 
188 2 90 34.0339 20.0032 47.6628 0 0 0 
189 2 90 33.1626 18.9266 47.9886 0 0 0 